V -t * -v 1.0a5 -a 0
A -t * -n 1 -p 0 -o 0x7fffffff -c 30 -a 1
A -t * -h 1 -m 1073741823 -s 0
n -t * -a 0 -s 0 -S UP -v circle -c black -i black
n -t * -a 1 -s 1 -S UP -v circle -c black -i black
n -t * -a 2 -s 2 -S UP -v circle -c black -i black
l -t * -s 0 -d 1 -S UP -r 60000000 -D 1.0000000000000001e-09 -c black
l -t * -s 1 -d 2 -S UP -r 4000000 -D 2.0000000000000001e-09 -c black
+ -t 1 -s 0 -d 1 -p tcp -e 40 -c 0 -i 0 -a 0 -x {0.0 2.0 0 ------- null}
- -t 1 -s 0 -d 1 -p tcp -e 40 -c 0 -i 0 -a 0 -x {0.0 2.0 0 ------- null}
h -t 1 -s 0 -d 1 -p tcp -e 40 -c 0 -i 0 -a 0 -x {0.0 2.0 -1 ------- null}
r -t 1.00000533433333 -s 0 -d 1 -p tcp -e 40 -c 0 -i 0 -a 0 -x {0.0 2.0 0 ------- null}
+ -t 1.00000533433333 -s 1 -d 2 -p tcp -e 40 -c 0 -i 0 -a 0 -x {0.0 2.0 0 ------- null}
- -t 1.00000533433333 -s 1 -d 2 -p tcp -e 40 -c 0 -i 0 -a 0 -x {0.0 2.0 0 ------- null}
h -t 1.00000533433333 -s 1 -d 2 -p tcp -e 40 -c 0 -i 0 -a 0 -x {0.0 2.0 -1 ------- null}
r -t 1.00008533633333 -s 1 -d 2 -p tcp -e 40 -c 0 -i 0 -a 0 -x {0.0 2.0 0 ------- null}
+ -t 1.00008533633333 -s 2 -d 1 -p ack -e 40 -c 0 -i 1 -a 0 -x {2.0 0.0 0 ------- null}
- -t 1.00008533633333 -s 2 -d 1 -p ack -e 40 -c 0 -i 1 -a 0 -x {2.0 0.0 0 ------- null}
h -t 1.00008533633333 -s 2 -d 1 -p ack -e 40 -c 0 -i 1 -a 0 -x {2.0 0.0 -1 ------- null}
r -t 1.00016533833333 -s 2 -d 1 -p ack -e 40 -c 0 -i 1 -a 0 -x {2.0 0.0 0 ------- null}
+ -t 1.00016533833333 -s 1 -d 0 -p ack -e 40 -c 0 -i 1 -a 0 -x {2.0 0.0 0 ------- null}
- -t 1.00016533833333 -s 1 -d 0 -p ack -e 40 -c 0 -i 1 -a 0 -x {2.0 0.0 0 ------- null}
h -t 1.00016533833333 -s 1 -d 0 -p ack -e 40 -c 0 -i 1 -a 0 -x {2.0 0.0 -1 ------- null}
r -t 1.00017067266667 -s 1 -d 0 -p ack -e 40 -c 0 -i 1 -a 0 -x {2.0 0.0 0 ------- null}
+ -t 1.00017067266667 -s 0 -d 1 -p tcp -e 1040 -c 0 -i 2 -a 0 -x {0.0 2.0 1 ------- null}
- -t 1.00017067266667 -s 0 -d 1 -p tcp -e 1040 -c 0 -i 2 -a 0 -x {0.0 2.0 1 ------- null}
h -t 1.00017067266667 -s 0 -d 1 -p tcp -e 1040 -c 0 -i 2 -a 0 -x {0.0 2.0 -1 ------- null}
+ -t 1.00017067266667 -s 0 -d 1 -p tcp -e 1040 -c 0 -i 3 -a 0 -x {0.0 2.0 2 ------- null}
- -t 1.00030933933333 -s 0 -d 1 -p tcp -e 1040 -c 0 -i 3 -a 0 -x {0.0 2.0 2 ------- null}
h -t 1.00030933933333 -s 0 -d 1 -p tcp -e 1040 -c 0 -i 3 -a 0 -x {0.0 2.0 -1 ------- null}
r -t 1.00030934033333 -s 0 -d 1 -p tcp -e 1040 -c 0 -i 2 -a 0 -x {0.0 2.0 1 ------- null}
+ -t 1.00030934033333 -s 1 -d 2 -p tcp -e 1040 -c 0 -i 2 -a 0 -x {0.0 2.0 1 ------- null}
- -t 1.00030934033333 -s 1 -d 2 -p tcp -e 1040 -c 0 -i 2 -a 0 -x {0.0 2.0 1 ------- null}
h -t 1.00030934033333 -s 1 -d 2 -p tcp -e 1040 -c 0 -i 2 -a 0 -x {0.0 2.0 -1 ------- null}
r -t 1.000448007 -s 0 -d 1 -p tcp -e 1040 -c 0 -i 3 -a 0 -x {0.0 2.0 2 ------- null}
+ -t 1.000448007 -s 1 -d 2 -p tcp -e 1040 -c 0 -i 3 -a 0 -x {0.0 2.0 2 ------- null}
- -t 1.00238934033333 -s 1 -d 2 -p tcp -e 1040 -c 0 -i 3 -a 0 -x {0.0 2.0 2 ------- null}
h -t 1.00238934033333 -s 1 -d 2 -p tcp -e 1040 -c 0 -i 3 -a 0 -x {0.0 2.0 -1 ------- null}
r -t 1.00238934233333 -s 1 -d 2 -p tcp -e 1040 -c 0 -i 2 -a 0 -x {0.0 2.0 1 ------- null}
+ -t 1.00238934233333 -s 2 -d 1 -p ack -e 40 -c 0 -i 4 -a 0 -x {2.0 0.0 1 ------- null}
- -t 1.00238934233333 -s 2 -d 1 -p ack -e 40 -c 0 -i 4 -a 0 -x {2.0 0.0 1 ------- null}
h -t 1.00238934233333 -s 2 -d 1 -p ack -e 40 -c 0 -i 4 -a 0 -x {2.0 0.0 -1 ------- null}
r -t 1.00246934433333 -s 2 -d 1 -p ack -e 40 -c 0 -i 4 -a 0 -x {2.0 0.0 1 ------- null}
+ -t 1.00246934433333 -s 1 -d 0 -p ack -e 40 -c 0 -i 4 -a 0 -x {2.0 0.0 1 ------- null}
- -t 1.00246934433333 -s 1 -d 0 -p ack -e 40 -c 0 -i 4 -a 0 -x {2.0 0.0 1 ------- null}
h -t 1.00246934433333 -s 1 -d 0 -p ack -e 40 -c 0 -i 4 -a 0 -x {2.0 0.0 -1 ------- null}
r -t 1.00247467866667 -s 1 -d 0 -p ack -e 40 -c 0 -i 4 -a 0 -x {2.0 0.0 1 ------- null}
+ -t 1.00247467866667 -s 0 -d 1 -p tcp -e 1040 -c 0 -i 5 -a 0 -x {0.0 2.0 3 ------- null}
- -t 1.00247467866667 -s 0 -d 1 -p tcp -e 1040 -c 0 -i 5 -a 0 -x {0.0 2.0 3 ------- null}
h -t 1.00247467866667 -s 0 -d 1 -p tcp -e 1040 -c 0 -i 5 -a 0 -x {0.0 2.0 -1 ------- null}
+ -t 1.00247467866667 -s 0 -d 1 -p tcp -e 1040 -c 0 -i 6 -a 0 -x {0.0 2.0 4 ------- null}
- -t 1.00261334533333 -s 0 -d 1 -p tcp -e 1040 -c 0 -i 6 -a 0 -x {0.0 2.0 4 ------- null}
h -t 1.00261334533333 -s 0 -d 1 -p tcp -e 1040 -c 0 -i 6 -a 0 -x {0.0 2.0 -1 ------- null}
r -t 1.00261334633333 -s 0 -d 1 -p tcp -e 1040 -c 0 -i 5 -a 0 -x {0.0 2.0 3 ------- null}
+ -t 1.00261334633333 -s 1 -d 2 -p tcp -e 1040 -c 0 -i 5 -a 0 -x {0.0 2.0 3 ------- null}
r -t 1.002752013 -s 0 -d 1 -p tcp -e 1040 -c 0 -i 6 -a 0 -x {0.0 2.0 4 ------- null}
+ -t 1.002752013 -s 1 -d 2 -p tcp -e 1040 -c 0 -i 6 -a 0 -x {0.0 2.0 4 ------- null}
- -t 1.00446934033333 -s 1 -d 2 -p tcp -e 1040 -c 0 -i 5 -a 0 -x {0.0 2.0 3 ------- null}
h -t 1.00446934033333 -s 1 -d 2 -p tcp -e 1040 -c 0 -i 5 -a 0 -x {0.0 2.0 -1 ------- null}
r -t 1.00446934233333 -s 1 -d 2 -p tcp -e 1040 -c 0 -i 3 -a 0 -x {0.0 2.0 2 ------- null}
+ -t 1.00446934233333 -s 2 -d 1 -p ack -e 40 -c 0 -i 7 -a 0 -x {2.0 0.0 2 ------- null}
- -t 1.00446934233333 -s 2 -d 1 -p ack -e 40 -c 0 -i 7 -a 0 -x {2.0 0.0 2 ------- null}
h -t 1.00446934233333 -s 2 -d 1 -p ack -e 40 -c 0 -i 7 -a 0 -x {2.0 0.0 -1 ------- null}
r -t 1.00454934433333 -s 2 -d 1 -p ack -e 40 -c 0 -i 7 -a 0 -x {2.0 0.0 2 ------- null}
+ -t 1.00454934433333 -s 1 -d 0 -p ack -e 40 -c 0 -i 7 -a 0 -x {2.0 0.0 2 ------- null}
- -t 1.00454934433333 -s 1 -d 0 -p ack -e 40 -c 0 -i 7 -a 0 -x {2.0 0.0 2 ------- null}
h -t 1.00454934433333 -s 1 -d 0 -p ack -e 40 -c 0 -i 7 -a 0 -x {2.0 0.0 -1 ------- null}
r -t 1.00455467866667 -s 1 -d 0 -p ack -e 40 -c 0 -i 7 -a 0 -x {2.0 0.0 2 ------- null}
+ -t 1.00455467866667 -s 0 -d 1 -p tcp -e 1040 -c 0 -i 8 -a 0 -x {0.0 2.0 5 ------- null}
- -t 1.00455467866667 -s 0 -d 1 -p tcp -e 1040 -c 0 -i 8 -a 0 -x {0.0 2.0 5 ------- null}
h -t 1.00455467866667 -s 0 -d 1 -p tcp -e 1040 -c 0 -i 8 -a 0 -x {0.0 2.0 -1 ------- null}
+ -t 1.00455467866667 -s 0 -d 1 -p tcp -e 1040 -c 0 -i 9 -a 0 -x {0.0 2.0 6 ------- null}
- -t 1.00469334533333 -s 0 -d 1 -p tcp -e 1040 -c 0 -i 9 -a 0 -x {0.0 2.0 6 ------- null}
h -t 1.00469334533333 -s 0 -d 1 -p tcp -e 1040 -c 0 -i 9 -a 0 -x {0.0 2.0 -1 ------- null}
r -t 1.00469334633333 -s 0 -d 1 -p tcp -e 1040 -c 0 -i 8 -a 0 -x {0.0 2.0 5 ------- null}
+ -t 1.00469334633333 -s 1 -d 2 -p tcp -e 1040 -c 0 -i 8 -a 0 -x {0.0 2.0 5 ------- null}
r -t 1.004832013 -s 0 -d 1 -p tcp -e 1040 -c 0 -i 9 -a 0 -x {0.0 2.0 6 ------- null}
+ -t 1.004832013 -s 1 -d 2 -p tcp -e 1040 -c 0 -i 9 -a 0 -x {0.0 2.0 6 ------- null}
- -t 1.00654934033333 -s 1 -d 2 -p tcp -e 1040 -c 0 -i 6 -a 0 -x {0.0 2.0 4 ------- null}
h -t 1.00654934033333 -s 1 -d 2 -p tcp -e 1040 -c 0 -i 6 -a 0 -x {0.0 2.0 -1 ------- null}
r -t 1.00654934233333 -s 1 -d 2 -p tcp -e 1040 -c 0 -i 5 -a 0 -x {0.0 2.0 3 ------- null}
+ -t 1.00654934233333 -s 2 -d 1 -p ack -e 40 -c 0 -i 10 -a 0 -x {2.0 0.0 3 ------- null}
- -t 1.00654934233333 -s 2 -d 1 -p ack -e 40 -c 0 -i 10 -a 0 -x {2.0 0.0 3 ------- null}
h -t 1.00654934233333 -s 2 -d 1 -p ack -e 40 -c 0 -i 10 -a 0 -x {2.0 0.0 -1 ------- null}
r -t 1.00662934433333 -s 2 -d 1 -p ack -e 40 -c 0 -i 10 -a 0 -x {2.0 0.0 3 ------- null}
+ -t 1.00662934433333 -s 1 -d 0 -p ack -e 40 -c 0 -i 10 -a 0 -x {2.0 0.0 3 ------- null}
- -t 1.00662934433333 -s 1 -d 0 -p ack -e 40 -c 0 -i 10 -a 0 -x {2.0 0.0 3 ------- null}
h -t 1.00662934433333 -s 1 -d 0 -p ack -e 40 -c 0 -i 10 -a 0 -x {2.0 0.0 -1 ------- null}
r -t 1.00663467866667 -s 1 -d 0 -p ack -e 40 -c 0 -i 10 -a 0 -x {2.0 0.0 3 ------- null}
+ -t 1.00663467866667 -s 0 -d 1 -p tcp -e 1040 -c 0 -i 11 -a 0 -x {0.0 2.0 7 ------- null}
- -t 1.00663467866667 -s 0 -d 1 -p tcp -e 1040 -c 0 -i 11 -a 0 -x {0.0 2.0 7 ------- null}
h -t 1.00663467866667 -s 0 -d 1 -p tcp -e 1040 -c 0 -i 11 -a 0 -x {0.0 2.0 -1 ------- null}
+ -t 1.00663467866667 -s 0 -d 1 -p tcp -e 1040 -c 0 -i 12 -a 0 -x {0.0 2.0 8 ------- null}
- -t 1.00677334533333 -s 0 -d 1 -p tcp -e 1040 -c 0 -i 12 -a 0 -x {0.0 2.0 8 ------- null}
h -t 1.00677334533333 -s 0 -d 1 -p tcp -e 1040 -c 0 -i 12 -a 0 -x {0.0 2.0 -1 ------- null}
r -t 1.00677334633333 -s 0 -d 1 -p tcp -e 1040 -c 0 -i 11 -a 0 -x {0.0 2.0 7 ------- null}
+ -t 1.00677334633333 -s 1 -d 2 -p tcp -e 1040 -c 0 -i 11 -a 0 -x {0.0 2.0 7 ------- null}
r -t 1.006912013 -s 0 -d 1 -p tcp -e 1040 -c 0 -i 12 -a 0 -x {0.0 2.0 8 ------- null}
+ -t 1.006912013 -s 1 -d 2 -p tcp -e 1040 -c 0 -i 12 -a 0 -x {0.0 2.0 8 ------- null}
- -t 1.00862934033333 -s 1 -d 2 -p tcp -e 1040 -c 0 -i 8 -a 0 -x {0.0 2.0 5 ------- null}
h -t 1.00862934033333 -s 1 -d 2 -p tcp -e 1040 -c 0 -i 8 -a 0 -x {0.0 2.0 -1 ------- null}
r -t 1.00862934233333 -s 1 -d 2 -p tcp -e 1040 -c 0 -i 6 -a 0 -x {0.0 2.0 4 ------- null}
+ -t 1.00862934233333 -s 2 -d 1 -p ack -e 40 -c 0 -i 13 -a 0 -x {2.0 0.0 4 ------- null}
- -t 1.00862934233333 -s 2 -d 1 -p ack -e 40 -c 0 -i 13 -a 0 -x {2.0 0.0 4 ------- null}
h -t 1.00862934233333 -s 2 -d 1 -p ack -e 40 -c 0 -i 13 -a 0 -x {2.0 0.0 -1 ------- null}
r -t 1.00870934433333 -s 2 -d 1 -p ack -e 40 -c 0 -i 13 -a 0 -x {2.0 0.0 4 ------- null}
+ -t 1.00870934433333 -s 1 -d 0 -p ack -e 40 -c 0 -i 13 -a 0 -x {2.0 0.0 4 ------- null}
- -t 1.00870934433333 -s 1 -d 0 -p ack -e 40 -c 0 -i 13 -a 0 -x {2.0 0.0 4 ------- null}
h -t 1.00870934433333 -s 1 -d 0 -p ack -e 40 -c 0 -i 13 -a 0 -x {2.0 0.0 -1 ------- null}
r -t 1.00871467866667 -s 1 -d 0 -p ack -e 40 -c 0 -i 13 -a 0 -x {2.0 0.0 4 ------- null}
+ -t 1.00871467866667 -s 0 -d 1 -p tcp -e 1040 -c 0 -i 14 -a 0 -x {0.0 2.0 9 ------- null}
- -t 1.00871467866667 -s 0 -d 1 -p tcp -e 1040 -c 0 -i 14 -a 0 -x {0.0 2.0 9 ------- null}
h -t 1.00871467866667 -s 0 -d 1 -p tcp -e 1040 -c 0 -i 14 -a 0 -x {0.0 2.0 -1 ------- null}
+ -t 1.00871467866667 -s 0 -d 1 -p tcp -e 1040 -c 0 -i 15 -a 0 -x {0.0 2.0 10 ------- null}
- -t 1.00885334533333 -s 0 -d 1 -p tcp -e 1040 -c 0 -i 15 -a 0 -x {0.0 2.0 10 ------- null}
h -t 1.00885334533333 -s 0 -d 1 -p tcp -e 1040 -c 0 -i 15 -a 0 -x {0.0 2.0 -1 ------- null}
r -t 1.00885334633333 -s 0 -d 1 -p tcp -e 1040 -c 0 -i 14 -a 0 -x {0.0 2.0 9 ------- null}
+ -t 1.00885334633333 -s 1 -d 2 -p tcp -e 1040 -c 0 -i 14 -a 0 -x {0.0 2.0 9 ------- null}
r -t 1.008992013 -s 0 -d 1 -p tcp -e 1040 -c 0 -i 15 -a 0 -x {0.0 2.0 10 ------- null}
+ -t 1.008992013 -s 1 -d 2 -p tcp -e 1040 -c 0 -i 15 -a 0 -x {0.0 2.0 10 ------- null}
- -t 1.01070934033333 -s 1 -d 2 -p tcp -e 1040 -c 0 -i 9 -a 0 -x {0.0 2.0 6 ------- null}
h -t 1.01070934033333 -s 1 -d 2 -p tcp -e 1040 -c 0 -i 9 -a 0 -x {0.0 2.0 -1 ------- null}
r -t 1.01070934233333 -s 1 -d 2 -p tcp -e 1040 -c 0 -i 8 -a 0 -x {0.0 2.0 5 ------- null}
+ -t 1.01070934233333 -s 2 -d 1 -p ack -e 40 -c 0 -i 16 -a 0 -x {2.0 0.0 5 ------- null}
- -t 1.01070934233333 -s 2 -d 1 -p ack -e 40 -c 0 -i 16 -a 0 -x {2.0 0.0 5 ------- null}
h -t 1.01070934233333 -s 2 -d 1 -p ack -e 40 -c 0 -i 16 -a 0 -x {2.0 0.0 -1 ------- null}
r -t 1.01078934433333 -s 2 -d 1 -p ack -e 40 -c 0 -i 16 -a 0 -x {2.0 0.0 5 ------- null}
+ -t 1.01078934433333 -s 1 -d 0 -p ack -e 40 -c 0 -i 16 -a 0 -x {2.0 0.0 5 ------- null}
- -t 1.01078934433333 -s 1 -d 0 -p ack -e 40 -c 0 -i 16 -a 0 -x {2.0 0.0 5 ------- null}
h -t 1.01078934433333 -s 1 -d 0 -p ack -e 40 -c 0 -i 16 -a 0 -x {2.0 0.0 -1 ------- null}
r -t 1.01079467866667 -s 1 -d 0 -p ack -e 40 -c 0 -i 16 -a 0 -x {2.0 0.0 5 ------- null}
+ -t 1.01079467866667 -s 0 -d 1 -p tcp -e 1040 -c 0 -i 17 -a 0 -x {0.0 2.0 11 ------- null}
- -t 1.01079467866667 -s 0 -d 1 -p tcp -e 1040 -c 0 -i 17 -a 0 -x {0.0 2.0 11 ------- null}
h -t 1.01079467866667 -s 0 -d 1 -p tcp -e 1040 -c 0 -i 17 -a 0 -x {0.0 2.0 -1 ------- null}
+ -t 1.01079467866667 -s 0 -d 1 -p tcp -e 1040 -c 0 -i 18 -a 0 -x {0.0 2.0 12 ------- null}
- -t 1.01093334533333 -s 0 -d 1 -p tcp -e 1040 -c 0 -i 18 -a 0 -x {0.0 2.0 12 ------- null}
h -t 1.01093334533333 -s 0 -d 1 -p tcp -e 1040 -c 0 -i 18 -a 0 -x {0.0 2.0 -1 ------- null}
r -t 1.01093334633333 -s 0 -d 1 -p tcp -e 1040 -c 0 -i 17 -a 0 -x {0.0 2.0 11 ------- null}
+ -t 1.01093334633333 -s 1 -d 2 -p tcp -e 1040 -c 0 -i 17 -a 0 -x {0.0 2.0 11 ------- null}
r -t 1.011072013 -s 0 -d 1 -p tcp -e 1040 -c 0 -i 18 -a 0 -x {0.0 2.0 12 ------- null}
+ -t 1.011072013 -s 1 -d 2 -p tcp -e 1040 -c 0 -i 18 -a 0 -x {0.0 2.0 12 ------- null}
- -t 1.01278934033333 -s 1 -d 2 -p tcp -e 1040 -c 0 -i 11 -a 0 -x {0.0 2.0 7 ------- null}
h -t 1.01278934033333 -s 1 -d 2 -p tcp -e 1040 -c 0 -i 11 -a 0 -x {0.0 2.0 -1 ------- null}
r -t 1.01278934233333 -s 1 -d 2 -p tcp -e 1040 -c 0 -i 9 -a 0 -x {0.0 2.0 6 ------- null}
+ -t 1.01278934233333 -s 2 -d 1 -p ack -e 40 -c 0 -i 19 -a 0 -x {2.0 0.0 6 ------- null}
- -t 1.01278934233333 -s 2 -d 1 -p ack -e 40 -c 0 -i 19 -a 0 -x {2.0 0.0 6 ------- null}
h -t 1.01278934233333 -s 2 -d 1 -p ack -e 40 -c 0 -i 19 -a 0 -x {2.0 0.0 -1 ------- null}
r -t 1.01286934433333 -s 2 -d 1 -p ack -e 40 -c 0 -i 19 -a 0 -x {2.0 0.0 6 ------- null}
+ -t 1.01286934433333 -s 1 -d 0 -p ack -e 40 -c 0 -i 19 -a 0 -x {2.0 0.0 6 ------- null}
- -t 1.01286934433333 -s 1 -d 0 -p ack -e 40 -c 0 -i 19 -a 0 -x {2.0 0.0 6 ------- null}
h -t 1.01286934433333 -s 1 -d 0 -p ack -e 40 -c 0 -i 19 -a 0 -x {2.0 0.0 -1 ------- null}
r -t 1.01287467866667 -s 1 -d 0 -p ack -e 40 -c 0 -i 19 -a 0 -x {2.0 0.0 6 ------- null}
+ -t 1.01287467866667 -s 0 -d 1 -p tcp -e 1040 -c 0 -i 20 -a 0 -x {0.0 2.0 13 ------- null}
- -t 1.01287467866667 -s 0 -d 1 -p tcp -e 1040 -c 0 -i 20 -a 0 -x {0.0 2.0 13 ------- null}
h -t 1.01287467866667 -s 0 -d 1 -p tcp -e 1040 -c 0 -i 20 -a 0 -x {0.0 2.0 -1 ------- null}
+ -t 1.01287467866667 -s 0 -d 1 -p tcp -e 1040 -c 0 -i 21 -a 0 -x {0.0 2.0 14 ------- null}
- -t 1.01301334533333 -s 0 -d 1 -p tcp -e 1040 -c 0 -i 21 -a 0 -x {0.0 2.0 14 ------- null}
h -t 1.01301334533333 -s 0 -d 1 -p tcp -e 1040 -c 0 -i 21 -a 0 -x {0.0 2.0 -1 ------- null}
r -t 1.01301334633333 -s 0 -d 1 -p tcp -e 1040 -c 0 -i 20 -a 0 -x {0.0 2.0 13 ------- null}
+ -t 1.01301334633333 -s 1 -d 2 -p tcp -e 1040 -c 0 -i 20 -a 0 -x {0.0 2.0 13 ------- null}
r -t 1.013152013 -s 0 -d 1 -p tcp -e 1040 -c 0 -i 21 -a 0 -x {0.0 2.0 14 ------- null}
+ -t 1.013152013 -s 1 -d 2 -p tcp -e 1040 -c 0 -i 21 -a 0 -x {0.0 2.0 14 ------- null}
- -t 1.01486934033333 -s 1 -d 2 -p tcp -e 1040 -c 0 -i 12 -a 0 -x {0.0 2.0 8 ------- null}
h -t 1.01486934033333 -s 1 -d 2 -p tcp -e 1040 -c 0 -i 12 -a 0 -x {0.0 2.0 -1 ------- null}
r -t 1.01486934233333 -s 1 -d 2 -p tcp -e 1040 -c 0 -i 11 -a 0 -x {0.0 2.0 7 ------- null}
+ -t 1.01486934233333 -s 2 -d 1 -p ack -e 40 -c 0 -i 22 -a 0 -x {2.0 0.0 7 ------- null}
- -t 1.01486934233333 -s 2 -d 1 -p ack -e 40 -c 0 -i 22 -a 0 -x {2.0 0.0 7 ------- null}
h -t 1.01486934233333 -s 2 -d 1 -p ack -e 40 -c 0 -i 22 -a 0 -x {2.0 0.0 -1 ------- null}
r -t 1.01494934433333 -s 2 -d 1 -p ack -e 40 -c 0 -i 22 -a 0 -x {2.0 0.0 7 ------- null}
+ -t 1.01494934433333 -s 1 -d 0 -p ack -e 40 -c 0 -i 22 -a 0 -x {2.0 0.0 7 ------- null}
- -t 1.01494934433333 -s 1 -d 0 -p ack -e 40 -c 0 -i 22 -a 0 -x {2.0 0.0 7 ------- null}
h -t 1.01494934433333 -s 1 -d 0 -p ack -e 40 -c 0 -i 22 -a 0 -x {2.0 0.0 -1 ------- null}
r -t 1.01495467866667 -s 1 -d 0 -p ack -e 40 -c 0 -i 22 -a 0 -x {2.0 0.0 7 ------- null}
+ -t 1.01495467866667 -s 0 -d 1 -p tcp -e 1040 -c 0 -i 23 -a 0 -x {0.0 2.0 15 ------- null}
- -t 1.01495467866667 -s 0 -d 1 -p tcp -e 1040 -c 0 -i 23 -a 0 -x {0.0 2.0 15 ------- null}
h -t 1.01495467866667 -s 0 -d 1 -p tcp -e 1040 -c 0 -i 23 -a 0 -x {0.0 2.0 -1 ------- null}
+ -t 1.01495467866667 -s 0 -d 1 -p tcp -e 1040 -c 0 -i 24 -a 0 -x {0.0 2.0 16 ------- null}
- -t 1.01509334533333 -s 0 -d 1 -p tcp -e 1040 -c 0 -i 24 -a 0 -x {0.0 2.0 16 ------- null}
h -t 1.01509334533333 -s 0 -d 1 -p tcp -e 1040 -c 0 -i 24 -a 0 -x {0.0 2.0 -1 ------- null}
r -t 1.01509334633333 -s 0 -d 1 -p tcp -e 1040 -c 0 -i 23 -a 0 -x {0.0 2.0 15 ------- null}
+ -t 1.01509334633333 -s 1 -d 2 -p tcp -e 1040 -c 0 -i 23 -a 0 -x {0.0 2.0 15 ------- null}
r -t 1.015232013 -s 0 -d 1 -p tcp -e 1040 -c 0 -i 24 -a 0 -x {0.0 2.0 16 ------- null}
+ -t 1.015232013 -s 1 -d 2 -p tcp -e 1040 -c 0 -i 24 -a 0 -x {0.0 2.0 16 ------- null}
- -t 1.01694934033333 -s 1 -d 2 -p tcp -e 1040 -c 0 -i 14 -a 0 -x {0.0 2.0 9 ------- null}
h -t 1.01694934033333 -s 1 -d 2 -p tcp -e 1040 -c 0 -i 14 -a 0 -x {0.0 2.0 -1 ------- null}
r -t 1.01694934233333 -s 1 -d 2 -p tcp -e 1040 -c 0 -i 12 -a 0 -x {0.0 2.0 8 ------- null}
+ -t 1.01694934233333 -s 2 -d 1 -p ack -e 40 -c 0 -i 25 -a 0 -x {2.0 0.0 8 ------- null}
- -t 1.01694934233333 -s 2 -d 1 -p ack -e 40 -c 0 -i 25 -a 0 -x {2.0 0.0 8 ------- null}
h -t 1.01694934233333 -s 2 -d 1 -p ack -e 40 -c 0 -i 25 -a 0 -x {2.0 0.0 -1 ------- null}
r -t 1.01702934433333 -s 2 -d 1 -p ack -e 40 -c 0 -i 25 -a 0 -x {2.0 0.0 8 ------- null}
+ -t 1.01702934433333 -s 1 -d 0 -p ack -e 40 -c 0 -i 25 -a 0 -x {2.0 0.0 8 ------- null}
- -t 1.01702934433333 -s 1 -d 0 -p ack -e 40 -c 0 -i 25 -a 0 -x {2.0 0.0 8 ------- null}
h -t 1.01702934433333 -s 1 -d 0 -p ack -e 40 -c 0 -i 25 -a 0 -x {2.0 0.0 -1 ------- null}
r -t 1.01703467866667 -s 1 -d 0 -p ack -e 40 -c 0 -i 25 -a 0 -x {2.0 0.0 8 ------- null}
+ -t 1.01703467866667 -s 0 -d 1 -p tcp -e 1040 -c 0 -i 26 -a 0 -x {0.0 2.0 17 ------- null}
- -t 1.01703467866667 -s 0 -d 1 -p tcp -e 1040 -c 0 -i 26 -a 0 -x {0.0 2.0 17 ------- null}
h -t 1.01703467866667 -s 0 -d 1 -p tcp -e 1040 -c 0 -i 26 -a 0 -x {0.0 2.0 -1 ------- null}
+ -t 1.01703467866667 -s 0 -d 1 -p tcp -e 1040 -c 0 -i 27 -a 0 -x {0.0 2.0 18 ------- null}
- -t 1.01717334533333 -s 0 -d 1 -p tcp -e 1040 -c 0 -i 27 -a 0 -x {0.0 2.0 18 ------- null}
h -t 1.01717334533333 -s 0 -d 1 -p tcp -e 1040 -c 0 -i 27 -a 0 -x {0.0 2.0 -1 ------- null}
r -t 1.01717334633333 -s 0 -d 1 -p tcp -e 1040 -c 0 -i 26 -a 0 -x {0.0 2.0 17 ------- null}
+ -t 1.01717334633333 -s 1 -d 2 -p tcp -e 1040 -c 0 -i 26 -a 0 -x {0.0 2.0 17 ------- null}
r -t 1.017312013 -s 0 -d 1 -p tcp -e 1040 -c 0 -i 27 -a 0 -x {0.0 2.0 18 ------- null}
+ -t 1.017312013 -s 1 -d 2 -p tcp -e 1040 -c 0 -i 27 -a 0 -x {0.0 2.0 18 ------- null}
d -t 1.017312013 -s 1 -d 2 -p tcp -e 1040 -c 0 -i 27 -a 0 -x {0.0 2.0 18 ------- null}
- -t 1.01902934033333 -s 1 -d 2 -p tcp -e 1040 -c 0 -i 15 -a 0 -x {0.0 2.0 10 ------- null}
h -t 1.01902934033333 -s 1 -d 2 -p tcp -e 1040 -c 0 -i 15 -a 0 -x {0.0 2.0 -1 ------- null}
r -t 1.01902934233333 -s 1 -d 2 -p tcp -e 1040 -c 0 -i 14 -a 0 -x {0.0 2.0 9 ------- null}
+ -t 1.01902934233333 -s 2 -d 1 -p ack -e 40 -c 0 -i 28 -a 0 -x {2.0 0.0 9 ------- null}
- -t 1.01902934233333 -s 2 -d 1 -p ack -e 40 -c 0 -i 28 -a 0 -x {2.0 0.0 9 ------- null}
h -t 1.01902934233333 -s 2 -d 1 -p ack -e 40 -c 0 -i 28 -a 0 -x {2.0 0.0 -1 ------- null}
r -t 1.01910934433333 -s 2 -d 1 -p ack -e 40 -c 0 -i 28 -a 0 -x {2.0 0.0 9 ------- null}
+ -t 1.01910934433333 -s 1 -d 0 -p ack -e 40 -c 0 -i 28 -a 0 -x {2.0 0.0 9 ------- null}
- -t 1.01910934433333 -s 1 -d 0 -p ack -e 40 -c 0 -i 28 -a 0 -x {2.0 0.0 9 ------- null}
h -t 1.01910934433333 -s 1 -d 0 -p ack -e 40 -c 0 -i 28 -a 0 -x {2.0 0.0 -1 ------- null}
r -t 1.01911467866667 -s 1 -d 0 -p ack -e 40 -c 0 -i 28 -a 0 -x {2.0 0.0 9 ------- null}
+ -t 1.01911467866667 -s 0 -d 1 -p tcp -e 1040 -c 0 -i 29 -a 0 -x {0.0 2.0 19 ------- null}
- -t 1.01911467866667 -s 0 -d 1 -p tcp -e 1040 -c 0 -i 29 -a 0 -x {0.0 2.0 19 ------- null}
h -t 1.01911467866667 -s 0 -d 1 -p tcp -e 1040 -c 0 -i 29 -a 0 -x {0.0 2.0 -1 ------- null}
+ -t 1.01911467866667 -s 0 -d 1 -p tcp -e 1040 -c 0 -i 30 -a 0 -x {0.0 2.0 20 ------- null}
- -t 1.01925334533333 -s 0 -d 1 -p tcp -e 1040 -c 0 -i 30 -a 0 -x {0.0 2.0 20 ------- null}
h -t 1.01925334533333 -s 0 -d 1 -p tcp -e 1040 -c 0 -i 30 -a 0 -x {0.0 2.0 -1 ------- null}
r -t 1.01925334633333 -s 0 -d 1 -p tcp -e 1040 -c 0 -i 29 -a 0 -x {0.0 2.0 19 ------- null}
+ -t 1.01925334633333 -s 1 -d 2 -p tcp -e 1040 -c 0 -i 29 -a 0 -x {0.0 2.0 19 ------- null}
r -t 1.019392013 -s 0 -d 1 -p tcp -e 1040 -c 0 -i 30 -a 0 -x {0.0 2.0 20 ------- null}
+ -t 1.019392013 -s 1 -d 2 -p tcp -e 1040 -c 0 -i 30 -a 0 -x {0.0 2.0 20 ------- null}
d -t 1.019392013 -s 1 -d 2 -p tcp -e 1040 -c 0 -i 30 -a 0 -x {0.0 2.0 20 ------- null}
- -t 1.02110934033333 -s 1 -d 2 -p tcp -e 1040 -c 0 -i 17 -a 0 -x {0.0 2.0 11 ------- null}
h -t 1.02110934033333 -s 1 -d 2 -p tcp -e 1040 -c 0 -i 17 -a 0 -x {0.0 2.0 -1 ------- null}
r -t 1.02110934233333 -s 1 -d 2 -p tcp -e 1040 -c 0 -i 15 -a 0 -x {0.0 2.0 10 ------- null}
+ -t 1.02110934233333 -s 2 -d 1 -p ack -e 40 -c 0 -i 31 -a 0 -x {2.0 0.0 10 ------- null}
- -t 1.02110934233333 -s 2 -d 1 -p ack -e 40 -c 0 -i 31 -a 0 -x {2.0 0.0 10 ------- null}
h -t 1.02110934233333 -s 2 -d 1 -p ack -e 40 -c 0 -i 31 -a 0 -x {2.0 0.0 -1 ------- null}
r -t 1.02118934433333 -s 2 -d 1 -p ack -e 40 -c 0 -i 31 -a 0 -x {2.0 0.0 10 ------- null}
+ -t 1.02118934433333 -s 1 -d 0 -p ack -e 40 -c 0 -i 31 -a 0 -x {2.0 0.0 10 ------- null}
- -t 1.02118934433333 -s 1 -d 0 -p ack -e 40 -c 0 -i 31 -a 0 -x {2.0 0.0 10 ------- null}
h -t 1.02118934433333 -s 1 -d 0 -p ack -e 40 -c 0 -i 31 -a 0 -x {2.0 0.0 -1 ------- null}
r -t 1.02119467866667 -s 1 -d 0 -p ack -e 40 -c 0 -i 31 -a 0 -x {2.0 0.0 10 ------- null}
+ -t 1.02119467866667 -s 0 -d 1 -p tcp -e 1040 -c 0 -i 32 -a 0 -x {0.0 2.0 21 ------- null}
- -t 1.02119467866667 -s 0 -d 1 -p tcp -e 1040 -c 0 -i 32 -a 0 -x {0.0 2.0 21 ------- null}
h -t 1.02119467866667 -s 0 -d 1 -p tcp -e 1040 -c 0 -i 32 -a 0 -x {0.0 2.0 -1 ------- null}
+ -t 1.02119467866667 -s 0 -d 1 -p tcp -e 1040 -c 0 -i 33 -a 0 -x {0.0 2.0 22 ------- null}
- -t 1.02133334533333 -s 0 -d 1 -p tcp -e 1040 -c 0 -i 33 -a 0 -x {0.0 2.0 22 ------- null}
h -t 1.02133334533333 -s 0 -d 1 -p tcp -e 1040 -c 0 -i 33 -a 0 -x {0.0 2.0 -1 ------- null}
r -t 1.02133334633333 -s 0 -d 1 -p tcp -e 1040 -c 0 -i 32 -a 0 -x {0.0 2.0 21 ------- null}
+ -t 1.02133334633333 -s 1 -d 2 -p tcp -e 1040 -c 0 -i 32 -a 0 -x {0.0 2.0 21 ------- null}
r -t 1.021472013 -s 0 -d 1 -p tcp -e 1040 -c 0 -i 33 -a 0 -x {0.0 2.0 22 ------- null}
+ -t 1.021472013 -s 1 -d 2 -p tcp -e 1040 -c 0 -i 33 -a 0 -x {0.0 2.0 22 ------- null}
d -t 1.021472013 -s 1 -d 2 -p tcp -e 1040 -c 0 -i 33 -a 0 -x {0.0 2.0 22 ------- null}
- -t 1.02318934033333 -s 1 -d 2 -p tcp -e 1040 -c 0 -i 18 -a 0 -x {0.0 2.0 12 ------- null}
h -t 1.02318934033333 -s 1 -d 2 -p tcp -e 1040 -c 0 -i 18 -a 0 -x {0.0 2.0 -1 ------- null}
r -t 1.02318934233333 -s 1 -d 2 -p tcp -e 1040 -c 0 -i 17 -a 0 -x {0.0 2.0 11 ------- null}
+ -t 1.02318934233333 -s 2 -d 1 -p ack -e 40 -c 0 -i 34 -a 0 -x {2.0 0.0 11 ------- null}
- -t 1.02318934233333 -s 2 -d 1 -p ack -e 40 -c 0 -i 34 -a 0 -x {2.0 0.0 11 ------- null}
h -t 1.02318934233333 -s 2 -d 1 -p ack -e 40 -c 0 -i 34 -a 0 -x {2.0 0.0 -1 ------- null}
r -t 1.02326934433333 -s 2 -d 1 -p ack -e 40 -c 0 -i 34 -a 0 -x {2.0 0.0 11 ------- null}
+ -t 1.02326934433333 -s 1 -d 0 -p ack -e 40 -c 0 -i 34 -a 0 -x {2.0 0.0 11 ------- null}
- -t 1.02326934433333 -s 1 -d 0 -p ack -e 40 -c 0 -i 34 -a 0 -x {2.0 0.0 11 ------- null}
h -t 1.02326934433333 -s 1 -d 0 -p ack -e 40 -c 0 -i 34 -a 0 -x {2.0 0.0 -1 ------- null}
r -t 1.02327467866667 -s 1 -d 0 -p ack -e 40 -c 0 -i 34 -a 0 -x {2.0 0.0 11 ------- null}
+ -t 1.02327467866667 -s 0 -d 1 -p tcp -e 1040 -c 0 -i 35 -a 0 -x {0.0 2.0 23 ------- null}
- -t 1.02327467866667 -s 0 -d 1 -p tcp -e 1040 -c 0 -i 35 -a 0 -x {0.0 2.0 23 ------- null}
h -t 1.02327467866667 -s 0 -d 1 -p tcp -e 1040 -c 0 -i 35 -a 0 -x {0.0 2.0 -1 ------- null}
+ -t 1.02327467866667 -s 0 -d 1 -p tcp -e 1040 -c 0 -i 36 -a 0 -x {0.0 2.0 24 ------- null}
- -t 1.02341334533333 -s 0 -d 1 -p tcp -e 1040 -c 0 -i 36 -a 0 -x {0.0 2.0 24 ------- null}
h -t 1.02341334533333 -s 0 -d 1 -p tcp -e 1040 -c 0 -i 36 -a 0 -x {0.0 2.0 -1 ------- null}
r -t 1.02341334633333 -s 0 -d 1 -p tcp -e 1040 -c 0 -i 35 -a 0 -x {0.0 2.0 23 ------- null}
+ -t 1.02341334633333 -s 1 -d 2 -p tcp -e 1040 -c 0 -i 35 -a 0 -x {0.0 2.0 23 ------- null}
r -t 1.023552013 -s 0 -d 1 -p tcp -e 1040 -c 0 -i 36 -a 0 -x {0.0 2.0 24 ------- null}
+ -t 1.023552013 -s 1 -d 2 -p tcp -e 1040 -c 0 -i 36 -a 0 -x {0.0 2.0 24 ------- null}
d -t 1.023552013 -s 1 -d 2 -p tcp -e 1040 -c 0 -i 36 -a 0 -x {0.0 2.0 24 ------- null}
- -t 1.02526934033333 -s 1 -d 2 -p tcp -e 1040 -c 0 -i 20 -a 0 -x {0.0 2.0 13 ------- null}
h -t 1.02526934033333 -s 1 -d 2 -p tcp -e 1040 -c 0 -i 20 -a 0 -x {0.0 2.0 -1 ------- null}
r -t 1.02526934233333 -s 1 -d 2 -p tcp -e 1040 -c 0 -i 18 -a 0 -x {0.0 2.0 12 ------- null}
+ -t 1.02526934233333 -s 2 -d 1 -p ack -e 40 -c 0 -i 37 -a 0 -x {2.0 0.0 12 ------- null}
- -t 1.02526934233333 -s 2 -d 1 -p ack -e 40 -c 0 -i 37 -a 0 -x {2.0 0.0 12 ------- null}
h -t 1.02526934233333 -s 2 -d 1 -p ack -e 40 -c 0 -i 37 -a 0 -x {2.0 0.0 -1 ------- null}
r -t 1.02534934433333 -s 2 -d 1 -p ack -e 40 -c 0 -i 37 -a 0 -x {2.0 0.0 12 ------- null}
+ -t 1.02534934433333 -s 1 -d 0 -p ack -e 40 -c 0 -i 37 -a 0 -x {2.0 0.0 12 ------- null}
- -t 1.02534934433333 -s 1 -d 0 -p ack -e 40 -c 0 -i 37 -a 0 -x {2.0 0.0 12 ------- null}
h -t 1.02534934433333 -s 1 -d 0 -p ack -e 40 -c 0 -i 37 -a 0 -x {2.0 0.0 -1 ------- null}
r -t 1.02535467866667 -s 1 -d 0 -p ack -e 40 -c 0 -i 37 -a 0 -x {2.0 0.0 12 ------- null}
+ -t 1.02535467866667 -s 0 -d 1 -p tcp -e 1040 -c 0 -i 38 -a 0 -x {0.0 2.0 25 ------- null}
- -t 1.02535467866667 -s 0 -d 1 -p tcp -e 1040 -c 0 -i 38 -a 0 -x {0.0 2.0 25 ------- null}
h -t 1.02535467866667 -s 0 -d 1 -p tcp -e 1040 -c 0 -i 38 -a 0 -x {0.0 2.0 -1 ------- null}
+ -t 1.02535467866667 -s 0 -d 1 -p tcp -e 1040 -c 0 -i 39 -a 0 -x {0.0 2.0 26 ------- null}
- -t 1.02549334533333 -s 0 -d 1 -p tcp -e 1040 -c 0 -i 39 -a 0 -x {0.0 2.0 26 ------- null}
h -t 1.02549334533333 -s 0 -d 1 -p tcp -e 1040 -c 0 -i 39 -a 0 -x {0.0 2.0 -1 ------- null}
r -t 1.02549334633333 -s 0 -d 1 -p tcp -e 1040 -c 0 -i 38 -a 0 -x {0.0 2.0 25 ------- null}
+ -t 1.02549334633333 -s 1 -d 2 -p tcp -e 1040 -c 0 -i 38 -a 0 -x {0.0 2.0 25 ------- null}
r -t 1.025632013 -s 0 -d 1 -p tcp -e 1040 -c 0 -i 39 -a 0 -x {0.0 2.0 26 ------- null}
+ -t 1.025632013 -s 1 -d 2 -p tcp -e 1040 -c 0 -i 39 -a 0 -x {0.0 2.0 26 ------- null}
d -t 1.025632013 -s 1 -d 2 -p tcp -e 1040 -c 0 -i 39 -a 0 -x {0.0 2.0 26 ------- null}
- -t 1.02734934033333 -s 1 -d 2 -p tcp -e 1040 -c 0 -i 21 -a 0 -x {0.0 2.0 14 ------- null}
h -t 1.02734934033333 -s 1 -d 2 -p tcp -e 1040 -c 0 -i 21 -a 0 -x {0.0 2.0 -1 ------- null}
r -t 1.02734934233333 -s 1 -d 2 -p tcp -e 1040 -c 0 -i 20 -a 0 -x {0.0 2.0 13 ------- null}
+ -t 1.02734934233333 -s 2 -d 1 -p ack -e 40 -c 0 -i 40 -a 0 -x {2.0 0.0 13 ------- null}
- -t 1.02734934233333 -s 2 -d 1 -p ack -e 40 -c 0 -i 40 -a 0 -x {2.0 0.0 13 ------- null}
h -t 1.02734934233333 -s 2 -d 1 -p ack -e 40 -c 0 -i 40 -a 0 -x {2.0 0.0 -1 ------- null}
r -t 1.02742934433333 -s 2 -d 1 -p ack -e 40 -c 0 -i 40 -a 0 -x {2.0 0.0 13 ------- null}
+ -t 1.02742934433333 -s 1 -d 0 -p ack -e 40 -c 0 -i 40 -a 0 -x {2.0 0.0 13 ------- null}
- -t 1.02742934433333 -s 1 -d 0 -p ack -e 40 -c 0 -i 40 -a 0 -x {2.0 0.0 13 ------- null}
h -t 1.02742934433333 -s 1 -d 0 -p ack -e 40 -c 0 -i 40 -a 0 -x {2.0 0.0 -1 ------- null}
r -t 1.02743467866667 -s 1 -d 0 -p ack -e 40 -c 0 -i 40 -a 0 -x {2.0 0.0 13 ------- null}
+ -t 1.02743467866667 -s 0 -d 1 -p tcp -e 1040 -c 0 -i 41 -a 0 -x {0.0 2.0 27 ------- null}
- -t 1.02743467866667 -s 0 -d 1 -p tcp -e 1040 -c 0 -i 41 -a 0 -x {0.0 2.0 27 ------- null}
h -t 1.02743467866667 -s 0 -d 1 -p tcp -e 1040 -c 0 -i 41 -a 0 -x {0.0 2.0 -1 ------- null}
+ -t 1.02743467866667 -s 0 -d 1 -p tcp -e 1040 -c 0 -i 42 -a 0 -x {0.0 2.0 28 ------- null}
- -t 1.02757334533333 -s 0 -d 1 -p tcp -e 1040 -c 0 -i 42 -a 0 -x {0.0 2.0 28 ------- null}
h -t 1.02757334533333 -s 0 -d 1 -p tcp -e 1040 -c 0 -i 42 -a 0 -x {0.0 2.0 -1 ------- null}
r -t 1.02757334633333 -s 0 -d 1 -p tcp -e 1040 -c 0 -i 41 -a 0 -x {0.0 2.0 27 ------- null}
+ -t 1.02757334633333 -s 1 -d 2 -p tcp -e 1040 -c 0 -i 41 -a 0 -x {0.0 2.0 27 ------- null}
r -t 1.027712013 -s 0 -d 1 -p tcp -e 1040 -c 0 -i 42 -a 0 -x {0.0 2.0 28 ------- null}
+ -t 1.027712013 -s 1 -d 2 -p tcp -e 1040 -c 0 -i 42 -a 0 -x {0.0 2.0 28 ------- null}
d -t 1.027712013 -s 1 -d 2 -p tcp -e 1040 -c 0 -i 42 -a 0 -x {0.0 2.0 28 ------- null}
- -t 1.02942934033333 -s 1 -d 2 -p tcp -e 1040 -c 0 -i 23 -a 0 -x {0.0 2.0 15 ------- null}
h -t 1.02942934033333 -s 1 -d 2 -p tcp -e 1040 -c 0 -i 23 -a 0 -x {0.0 2.0 -1 ------- null}
r -t 1.02942934233333 -s 1 -d 2 -p tcp -e 1040 -c 0 -i 21 -a 0 -x {0.0 2.0 14 ------- null}
+ -t 1.02942934233333 -s 2 -d 1 -p ack -e 40 -c 0 -i 43 -a 0 -x {2.0 0.0 14 ------- null}
- -t 1.02942934233333 -s 2 -d 1 -p ack -e 40 -c 0 -i 43 -a 0 -x {2.0 0.0 14 ------- null}
h -t 1.02942934233333 -s 2 -d 1 -p ack -e 40 -c 0 -i 43 -a 0 -x {2.0 0.0 -1 ------- null}
r -t 1.02950934433333 -s 2 -d 1 -p ack -e 40 -c 0 -i 43 -a 0 -x {2.0 0.0 14 ------- null}
+ -t 1.02950934433333 -s 1 -d 0 -p ack -e 40 -c 0 -i 43 -a 0 -x {2.0 0.0 14 ------- null}
- -t 1.02950934433333 -s 1 -d 0 -p ack -e 40 -c 0 -i 43 -a 0 -x {2.0 0.0 14 ------- null}
h -t 1.02950934433333 -s 1 -d 0 -p ack -e 40 -c 0 -i 43 -a 0 -x {2.0 0.0 -1 ------- null}
r -t 1.02951467866667 -s 1 -d 0 -p ack -e 40 -c 0 -i 43 -a 0 -x {2.0 0.0 14 ------- null}
+ -t 1.02951467866667 -s 0 -d 1 -p tcp -e 1040 -c 0 -i 44 -a 0 -x {0.0 2.0 29 ------- null}
- -t 1.02951467866667 -s 0 -d 1 -p tcp -e 1040 -c 0 -i 44 -a 0 -x {0.0 2.0 29 ------- null}
h -t 1.02951467866667 -s 0 -d 1 -p tcp -e 1040 -c 0 -i 44 -a 0 -x {0.0 2.0 -1 ------- null}
+ -t 1.02951467866667 -s 0 -d 1 -p tcp -e 1040 -c 0 -i 45 -a 0 -x {0.0 2.0 30 ------- null}
- -t 1.02965334533333 -s 0 -d 1 -p tcp -e 1040 -c 0 -i 45 -a 0 -x {0.0 2.0 30 ------- null}
h -t 1.02965334533333 -s 0 -d 1 -p tcp -e 1040 -c 0 -i 45 -a 0 -x {0.0 2.0 -1 ------- null}
r -t 1.02965334633333 -s 0 -d 1 -p tcp -e 1040 -c 0 -i 44 -a 0 -x {0.0 2.0 29 ------- null}
+ -t 1.02965334633333 -s 1 -d 2 -p tcp -e 1040 -c 0 -i 44 -a 0 -x {0.0 2.0 29 ------- null}
r -t 1.029792013 -s 0 -d 1 -p tcp -e 1040 -c 0 -i 45 -a 0 -x {0.0 2.0 30 ------- null}
+ -t 1.029792013 -s 1 -d 2 -p tcp -e 1040 -c 0 -i 45 -a 0 -x {0.0 2.0 30 ------- null}
d -t 1.029792013 -s 1 -d 2 -p tcp -e 1040 -c 0 -i 45 -a 0 -x {0.0 2.0 30 ------- null}