+ 1 0 1 tcp 40 ------- 0 0.0 2.0 0 0
- 1 0 1 tcp 40 ------- 0 0.0 2.0 0 0
r 1.000005 0 1 tcp 40 ------- 0 0.0 2.0 0 0
+ 1.000005 1 2 tcp 40 ------- 0 0.0 2.0 0 0
- 1.000005 1 2 tcp 40 ------- 0 0.0 2.0 0 0
r 1.000085 1 2 tcp 40 ------- 0 0.0 2.0 0 0
+ 1.000085 2 1 ack 40 ------- 0 2.0 0.0 0 1
- 1.000085 2 1 ack 40 ------- 0 2.0 0.0 0 1
r 1.000165 2 1 ack 40 ------- 0 2.0 0.0 0 1
+ 1.000165 1 0 ack 40 ------- 0 2.0 0.0 0 1
- 1.000165 1 0 ack 40 ------- 0 2.0 0.0 0 1
r 1.000171 1 0 ack 40 ------- 0 2.0 0.0 0 1
+ 1.000171 0 1 tcp 1040 ------- 0 0.0 2.0 1 2
- 1.000171 0 1 tcp 1040 ------- 0 0.0 2.0 1 2
+ 1.000171 0 1 tcp 1040 ------- 0 0.0 2.0 2 3
- 1.000309 0 1 tcp 1040 ------- 0 0.0 2.0 2 3
r 1.000309 0 1 tcp 1040 ------- 0 0.0 2.0 1 2
+ 1.000309 1 2 tcp 1040 ------- 0 0.0 2.0 1 2
- 1.000309 1 2 tcp 1040 ------- 0 0.0 2.0 1 2
r 1.000448 0 1 tcp 1040 ------- 0 0.0 2.0 2 3
+ 1.000448 1 2 tcp 1040 ------- 0 0.0 2.0 2 3
- 1.002389 1 2 tcp 1040 ------- 0 0.0 2.0 2 3
r 1.002389 1 2 tcp 1040 ------- 0 0.0 2.0 1 2
+ 1.002389 2 1 ack 40 ------- 0 2.0 0.0 1 4
- 1.002389 2 1 ack 40 ------- 0 2.0 0.0 1 4
r 1.002469 2 1 ack 40 ------- 0 2.0 0.0 1 4
+ 1.002469 1 0 ack 40 ------- 0 2.0 0.0 1 4
- 1.002469 1 0 ack 40 ------- 0 2.0 0.0 1 4
r 1.002475 1 0 ack 40 ------- 0 2.0 0.0 1 4
+ 1.002475 0 1 tcp 1040 ------- 0 0.0 2.0 3 5
- 1.002475 0 1 tcp 1040 ------- 0 0.0 2.0 3 5
+ 1.002475 0 1 tcp 1040 ------- 0 0.0 2.0 4 6
- 1.002613 0 1 tcp 1040 ------- 0 0.0 2.0 4 6
r 1.002613 0 1 tcp 1040 ------- 0 0.0 2.0 3 5
+ 1.002613 1 2 tcp 1040 ------- 0 0.0 2.0 3 5
r 1.002752 0 1 tcp 1040 ------- 0 0.0 2.0 4 6
+ 1.002752 1 2 tcp 1040 ------- 0 0.0 2.0 4 6
- 1.004469 1 2 tcp 1040 ------- 0 0.0 2.0 3 5
r 1.004469 1 2 tcp 1040 ------- 0 0.0 2.0 2 3
+ 1.004469 2 1 ack 40 ------- 0 2.0 0.0 2 7
- 1.004469 2 1 ack 40 ------- 0 2.0 0.0 2 7
r 1.004549 2 1 ack 40 ------- 0 2.0 0.0 2 7
+ 1.004549 1 0 ack 40 ------- 0 2.0 0.0 2 7
- 1.004549 1 0 ack 40 ------- 0 2.0 0.0 2 7
r 1.004555 1 0 ack 40 ------- 0 2.0 0.0 2 7
+ 1.004555 0 1 tcp 1040 ------- 0 0.0 2.0 5 8
- 1.004555 0 1 tcp 1040 ------- 0 0.0 2.0 5 8
+ 1.004555 0 1 tcp 1040 ------- 0 0.0 2.0 6 9
- 1.004693 0 1 tcp 1040 ------- 0 0.0 2.0 6 9
r 1.004693 0 1 tcp 1040 ------- 0 0.0 2.0 5 8
+ 1.004693 1 2 tcp 1040 ------- 0 0.0 2.0 5 8
r 1.004832 0 1 tcp 1040 ------- 0 0.0 2.0 6 9
+ 1.004832 1 2 tcp 1040 ------- 0 0.0 2.0 6 9
- 1.006549 1 2 tcp 1040 ------- 0 0.0 2.0 4 6
r 1.006549 1 2 tcp 1040 ------- 0 0.0 2.0 3 5
+ 1.006549 2 1 ack 40 ------- 0 2.0 0.0 3 10
- 1.006549 2 1 ack 40 ------- 0 2.0 0.0 3 10
r 1.006629 2 1 ack 40 ------- 0 2.0 0.0 3 10
+ 1.006629 1 0 ack 40 ------- 0 2.0 0.0 3 10
- 1.006629 1 0 ack 40 ------- 0 2.0 0.0 3 10
r 1.006635 1 0 ack 40 ------- 0 2.0 0.0 3 10
+ 1.006635 0 1 tcp 1040 ------- 0 0.0 2.0 7 11
- 1.006635 0 1 tcp 1040 ------- 0 0.0 2.0 7 11
+ 1.006635 0 1 tcp 1040 ------- 0 0.0 2.0 8 12
- 1.006773 0 1 tcp 1040 ------- 0 0.0 2.0 8 12
r 1.006773 0 1 tcp 1040 ------- 0 0.0 2.0 7 11
+ 1.006773 1 2 tcp 1040 ------- 0 0.0 2.0 7 11
r 1.006912 0 1 tcp 1040 ------- 0 0.0 2.0 8 12
+ 1.006912 1 2 tcp 1040 ------- 0 0.0 2.0 8 12
- 1.008629 1 2 tcp 1040 ------- 0 0.0 2.0 5 8
r 1.008629 1 2 tcp 1040 ------- 0 0.0 2.0 4 6
+ 1.008629 2 1 ack 40 ------- 0 2.0 0.0 4 13
- 1.008629 2 1 ack 40 ------- 0 2.0 0.0 4 13
r 1.008709 2 1 ack 40 ------- 0 2.0 0.0 4 13
+ 1.008709 1 0 ack 40 ------- 0 2.0 0.0 4 13
- 1.008709 1 0 ack 40 ------- 0 2.0 0.0 4 13
r 1.008715 1 0 ack 40 ------- 0 2.0 0.0 4 13
+ 1.008715 0 1 tcp 1040 ------- 0 0.0 2.0 9 14
- 1.008715 0 1 tcp 1040 ------- 0 0.0 2.0 9 14
+ 1.008715 0 1 tcp 1040 ------- 0 0.0 2.0 10 15
- 1.008853 0 1 tcp 1040 ------- 0 0.0 2.0 10 15
r 1.008853 0 1 tcp 1040 ------- 0 0.0 2.0 9 14
+ 1.008853 1 2 tcp 1040 ------- 0 0.0 2.0 9 14
r 1.008992 0 1 tcp 1040 ------- 0 0.0 2.0 10 15
+ 1.008992 1 2 tcp 1040 ------- 0 0.0 2.0 10 15
- 1.010709 1 2 tcp 1040 ------- 0 0.0 2.0 6 9
r 1.010709 1 2 tcp 1040 ------- 0 0.0 2.0 5 8
+ 1.010709 2 1 ack 40 ------- 0 2.0 0.0 5 16
- 1.010709 2 1 ack 40 ------- 0 2.0 0.0 5 16
r 1.010789 2 1 ack 40 ------- 0 2.0 0.0 5 16
+ 1.010789 1 0 ack 40 ------- 0 2.0 0.0 5 16
- 1.010789 1 0 ack 40 ------- 0 2.0 0.0 5 16
r 1.010795 1 0 ack 40 ------- 0 2.0 0.0 5 16
+ 1.010795 0 1 tcp 1040 ------- 0 0.0 2.0 11 17
- 1.010795 0 1 tcp 1040 ------- 0 0.0 2.0 11 17
+ 1.010795 0 1 tcp 1040 ------- 0 0.0 2.0 12 18
- 1.010933 0 1 tcp 1040 ------- 0 0.0 2.0 12 18
r 1.010933 0 1 tcp 1040 ------- 0 0.0 2.0 11 17
+ 1.010933 1 2 tcp 1040 ------- 0 0.0 2.0 11 17
r 1.011072 0 1 tcp 1040 ------- 0 0.0 2.0 12 18
+ 1.011072 1 2 tcp 1040 ------- 0 0.0 2.0 12 18
- 1.012789 1 2 tcp 1040 ------- 0 0.0 2.0 7 11
r 1.012789 1 2 tcp 1040 ------- 0 0.0 2.0 6 9
+ 1.012789 2 1 ack 40 ------- 0 2.0 0.0 6 19
- 1.012789 2 1 ack 40 ------- 0 2.0 0.0 6 19
r 1.012869 2 1 ack 40 ------- 0 2.0 0.0 6 19
+ 1.012869 1 0 ack 40 ------- 0 2.0 0.0 6 19
- 1.012869 1 0 ack 40 ------- 0 2.0 0.0 6 19
r 1.012875 1 0 ack 40 ------- 0 2.0 0.0 6 19
+ 1.012875 0 1 tcp 1040 ------- 0 0.0 2.0 13 20
- 1.012875 0 1 tcp 1040 ------- 0 0.0 2.0 13 20
+ 1.012875 0 1 tcp 1040 ------- 0 0.0 2.0 14 21
- 1.013013 0 1 tcp 1040 ------- 0 0.0 2.0 14 21
r 1.013013 0 1 tcp 1040 ------- 0 0.0 2.0 13 20
+ 1.013013 1 2 tcp 1040 ------- 0 0.0 2.0 13 20
r 1.013152 0 1 tcp 1040 ------- 0 0.0 2.0 14 21
+ 1.013152 1 2 tcp 1040 ------- 0 0.0 2.0 14 21
- 1.014869 1 2 tcp 1040 ------- 0 0.0 2.0 8 12
r 1.014869 1 2 tcp 1040 ------- 0 0.0 2.0 7 11
+ 1.014869 2 1 ack 40 ------- 0 2.0 0.0 7 22
- 1.014869 2 1 ack 40 ------- 0 2.0 0.0 7 22
r 1.014949 2 1 ack 40 ------- 0 2.0 0.0 7 22
+ 1.014949 1 0 ack 40 ------- 0 2.0 0.0 7 22
- 1.014949 1 0 ack 40 ------- 0 2.0 0.0 7 22
r 1.014955 1 0 ack 40 ------- 0 2.0 0.0 7 22
+ 1.014955 0 1 tcp 1040 ------- 0 0.0 2.0 15 23
- 1.014955 0 1 tcp 1040 ------- 0 0.0 2.0 15 23
+ 1.014955 0 1 tcp 1040 ------- 0 0.0 2.0 16 24
- 1.015093 0 1 tcp 1040 ------- 0 0.0 2.0 16 24
r 1.015093 0 1 tcp 1040 ------- 0 0.0 2.0 15 23
+ 1.015093 1 2 tcp 1040 ------- 0 0.0 2.0 15 23
r 1.015232 0 1 tcp 1040 ------- 0 0.0 2.0 16 24
+ 1.015232 1 2 tcp 1040 ------- 0 0.0 2.0 16 24
- 1.016949 1 2 tcp 1040 ------- 0 0.0 2.0 9 14
r 1.016949 1 2 tcp 1040 ------- 0 0.0 2.0 8 12
+ 1.016949 2 1 ack 40 ------- 0 2.0 0.0 8 25
- 1.016949 2 1 ack 40 ------- 0 2.0 0.0 8 25
r 1.017029 2 1 ack 40 ------- 0 2.0 0.0 8 25
+ 1.017029 1 0 ack 40 ------- 0 2.0 0.0 8 25
- 1.017029 1 0 ack 40 ------- 0 2.0 0.0 8 25
r 1.017035 1 0 ack 40 ------- 0 2.0 0.0 8 25
+ 1.017035 0 1 tcp 1040 ------- 0 0.0 2.0 17 26
- 1.017035 0 1 tcp 1040 ------- 0 0.0 2.0 17 26
+ 1.017035 0 1 tcp 1040 ------- 0 0.0 2.0 18 27
- 1.017173 0 1 tcp 1040 ------- 0 0.0 2.0 18 27
r 1.017173 0 1 tcp 1040 ------- 0 0.0 2.0 17 26
+ 1.017173 1 2 tcp 1040 ------- 0 0.0 2.0 17 26
r 1.017312 0 1 tcp 1040 ------- 0 0.0 2.0 18 27
+ 1.017312 1 2 tcp 1040 ------- 0 0.0 2.0 18 27
d 1.017312 1 2 tcp 1040 ------- 0 0.0 2.0 18 27
- 1.019029 1 2 tcp 1040 ------- 0 0.0 2.0 10 15
r 1.019029 1 2 tcp 1040 ------- 0 0.0 2.0 9 14
+ 1.019029 2 1 ack 40 ------- 0 2.0 0.0 9 28
- 1.019029 2 1 ack 40 ------- 0 2.0 0.0 9 28
r 1.019109 2 1 ack 40 ------- 0 2.0 0.0 9 28
+ 1.019109 1 0 ack 40 ------- 0 2.0 0.0 9 28
- 1.019109 1 0 ack 40 ------- 0 2.0 0.0 9 28
r 1.019115 1 0 ack 40 ------- 0 2.0 0.0 9 28
+ 1.019115 0 1 tcp 1040 ------- 0 0.0 2.0 19 29
- 1.019115 0 1 tcp 1040 ------- 0 0.0 2.0 19 29
+ 1.019115 0 1 tcp 1040 ------- 0 0.0 2.0 20 30
- 1.019253 0 1 tcp 1040 ------- 0 0.0 2.0 20 30
r 1.019253 0 1 tcp 1040 ------- 0 0.0 2.0 19 29
+ 1.019253 1 2 tcp 1040 ------- 0 0.0 2.0 19 29
r 1.019392 0 1 tcp 1040 ------- 0 0.0 2.0 20 30
+ 1.019392 1 2 tcp 1040 ------- 0 0.0 2.0 20 30
d 1.019392 1 2 tcp 1040 ------- 0 0.0 2.0 20 30
- 1.021109 1 2 tcp 1040 ------- 0 0.0 2.0 11 17
r 1.021109 1 2 tcp 1040 ------- 0 0.0 2.0 10 15
+ 1.021109 2 1 ack 40 ------- 0 2.0 0.0 10 31
- 1.021109 2 1 ack 40 ------- 0 2.0 0.0 10 31
r 1.021189 2 1 ack 40 ------- 0 2.0 0.0 10 31
+ 1.021189 1 0 ack 40 ------- 0 2.0 0.0 10 31
- 1.021189 1 0 ack 40 ------- 0 2.0 0.0 10 31
r 1.021195 1 0 ack 40 ------- 0 2.0 0.0 10 31
+ 1.021195 0 1 tcp 1040 ------- 0 0.0 2.0 21 32
- 1.021195 0 1 tcp 1040 ------- 0 0.0 2.0 21 32
+ 1.021195 0 1 tcp 1040 ------- 0 0.0 2.0 22 33
- 1.021333 0 1 tcp 1040 ------- 0 0.0 2.0 22 33
r 1.021333 0 1 tcp 1040 ------- 0 0.0 2.0 21 32
+ 1.021333 1 2 tcp 1040 ------- 0 0.0 2.0 21 32
r 1.021472 0 1 tcp 1040 ------- 0 0.0 2.0 22 33
+ 1.021472 1 2 tcp 1040 ------- 0 0.0 2.0 22 33
d 1.021472 1 2 tcp 1040 ------- 0 0.0 2.0 22 33
- 1.023189 1 2 tcp 1040 ------- 0 0.0 2.0 12 18
r 1.023189 1 2 tcp 1040 ------- 0 0.0 2.0 11 17
+ 1.023189 2 1 ack 40 ------- 0 2.0 0.0 11 34
- 1.023189 2 1 ack 40 ------- 0 2.0 0.0 11 34
r 1.023269 2 1 ack 40 ------- 0 2.0 0.0 11 34
+ 1.023269 1 0 ack 40 ------- 0 2.0 0.0 11 34
- 1.023269 1 0 ack 40 ------- 0 2.0 0.0 11 34
r 1.023275 1 0 ack 40 ------- 0 2.0 0.0 11 34
+ 1.023275 0 1 tcp 1040 ------- 0 0.0 2.0 23 35
- 1.023275 0 1 tcp 1040 ------- 0 0.0 2.0 23 35
+ 1.023275 0 1 tcp 1040 ------- 0 0.0 2.0 24 36
- 1.023413 0 1 tcp 1040 ------- 0 0.0 2.0 24 36
r 1.023413 0 1 tcp 1040 ------- 0 0.0 2.0 23 35
+ 1.023413 1 2 tcp 1040 ------- 0 0.0 2.0 23 35
r 1.023552 0 1 tcp 1040 ------- 0 0.0 2.0 24 36
+ 1.023552 1 2 tcp 1040 ------- 0 0.0 2.0 24 36
d 1.023552 1 2 tcp 1040 ------- 0 0.0 2.0 24 36
- 1.025269 1 2 tcp 1040 ------- 0 0.0 2.0 13 20
r 1.025269 1 2 tcp 1040 ------- 0 0.0 2.0 12 18
+ 1.025269 2 1 ack 40 ------- 0 2.0 0.0 12 37
- 1.025269 2 1 ack 40 ------- 0 2.0 0.0 12 37
r 1.025349 2 1 ack 40 ------- 0 2.0 0.0 12 37
+ 1.025349 1 0 ack 40 ------- 0 2.0 0.0 12 37
- 1.025349 1 0 ack 40 ------- 0 2.0 0.0 12 37
r 1.025355 1 0 ack 40 ------- 0 2.0 0.0 12 37
+ 1.025355 0 1 tcp 1040 ------- 0 0.0 2.0 25 38
- 1.025355 0 1 tcp 1040 ------- 0 0.0 2.0 25 38
+ 1.025355 0 1 tcp 1040 ------- 0 0.0 2.0 26 39
- 1.025493 0 1 tcp 1040 ------- 0 0.0 2.0 26 39
r 1.025493 0 1 tcp 1040 ------- 0 0.0 2.0 25 38
+ 1.025493 1 2 tcp 1040 ------- 0 0.0 2.0 25 38
r 1.025632 0 1 tcp 1040 ------- 0 0.0 2.0 26 39
+ 1.025632 1 2 tcp 1040 ------- 0 0.0 2.0 26 39
d 1.025632 1 2 tcp 1040 ------- 0 0.0 2.0 26 39
- 1.027349 1 2 tcp 1040 ------- 0 0.0 2.0 14 21
r 1.027349 1 2 tcp 1040 ------- 0 0.0 2.0 13 20
+ 1.027349 2 1 ack 40 ------- 0 2.0 0.0 13 40
- 1.027349 2 1 ack 40 ------- 0 2.0 0.0 13 40
r 1.027429 2 1 ack 40 ------- 0 2.0 0.0 13 40
+ 1.027429 1 0 ack 40 ------- 0 2.0 0.0 13 40
- 1.027429 1 0 ack 40 ------- 0 2.0 0.0 13 40
r 1.027435 1 0 ack 40 ------- 0 2.0 0.0 13 40
+ 1.027435 0 1 tcp 1040 ------- 0 0.0 2.0 27 41
- 1.027435 0 1 tcp 1040 ------- 0 0.0 2.0 27 41
+ 1.027435 0 1 tcp 1040 ------- 0 0.0 2.0 28 42
- 1.027573 0 1 tcp 1040 ------- 0 0.0 2.0 28 42
r 1.027573 0 1 tcp 1040 ------- 0 0.0 2.0 27 41
+ 1.027573 1 2 tcp 1040 ------- 0 0.0 2.0 27 41
r 1.027712 0 1 tcp 1040 ------- 0 0.0 2.0 28 42
+ 1.027712 1 2 tcp 1040 ------- 0 0.0 2.0 28 42
d 1.027712 1 2 tcp 1040 ------- 0 0.0 2.0 28 42
- 1.029429 1 2 tcp 1040 ------- 0 0.0 2.0 15 23
r 1.029429 1 2 tcp 1040 ------- 0 0.0 2.0 14 21
+ 1.029429 2 1 ack 40 ------- 0 2.0 0.0 14 43
- 1.029429 2 1 ack 40 ------- 0 2.0 0.0 14 43
r 1.029509 2 1 ack 40 ------- 0 2.0 0.0 14 43
+ 1.029509 1 0 ack 40 ------- 0 2.0 0.0 14 43
- 1.029509 1 0 ack 40 ------- 0 2.0 0.0 14 43
r 1.029515 1 0 ack 40 ------- 0 2.0 0.0 14 43
+ 1.029515 0 1 tcp 1040 ------- 0 0.0 2.0 29 44
- 1.029515 0 1 tcp 1040 ------- 0 0.0 2.0 29 44
+ 1.029515 0 1 tcp 1040 ------- 0 0.0 2.0 30 45
- 1.029653 0 1 tcp 1040 ------- 0 0.0 2.0 30 45
r 1.029653 0 1 tcp 1040 ------- 0 0.0 2.0 29 44
+ 1.029653 1 2 tcp 1040 ------- 0 0.0 2.0 29 44
r 1.029792 0 1 tcp 1040 ------- 0 0.0 2.0 30 45
+ 1.029792 1 2 tcp 1040 ------- 0 0.0 2.0 30 45
d 1.029792 1 2 tcp 1040 ------- 0 0.0 2.0 30 45
- 1.031509 1 2 tcp 1040 ------- 0 0.0 2.0 16 24
r 1.031509 1 2 tcp 1040 ------- 0 0.0 2.0 15 23
+ 1.031509 2 1 ack 40 ------- 0 2.0 0.0 15 46
- 1.031509 2 1 ack 40 ------- 0 2.0 0.0 15 46
r 1.031589 2 1 ack 40 ------- 0 2.0 0.0 15 46
+ 1.031589 1 0 ack 40 ------- 0 2.0 0.0 15 46
- 1.031589 1 0 ack 40 ------- 0 2.0 0.0 15 46
r 1.031595 1 0 ack 40 ------- 0 2.0 0.0 15 46
+ 1.031595 0 1 tcp 1040 ------- 0 0.0 2.0 31 47
- 1.031595 0 1 tcp 1040 ------- 0 0.0 2.0 31 47
+ 1.031595 0 1 tcp 1040 ------- 0 0.0 2.0 32 48
- 1.031733 0 1 tcp 1040 ------- 0 0.0 2.0 32 48
r 1.031733 0 1 tcp 1040 ------- 0 0.0 2.0 31 47
+ 1.031733 1 2 tcp 1040 ------- 0 0.0 2.0 31 47
r 1.031872 0 1 tcp 1040 ------- 0 0.0 2.0 32 48
+ 1.031872 1 2 tcp 1040 ------- 0 0.0 2.0 32 48
d 1.031872 1 2 tcp 1040 ------- 0 0.0 2.0 32 48
- 1.033589 1 2 tcp 1040 ------- 0 0.0 2.0 17 26
r 1.033589 1 2 tcp 1040 ------- 0 0.0 2.0 16 24
+ 1.033589 2 1 ack 40 ------- 0 2.0 0.0 16 49
- 1.033589 2 1 ack 40 ------- 0 2.0 0.0 16 49
r 1.033669 2 1 ack 40 ------- 0 2.0 0.0 16 49
+ 1.033669 1 0 ack 40 ------- 0 2.0 0.0 16 49
- 1.033669 1 0 ack 40 ------- 0 2.0 0.0 16 49
r 1.033675 1 0 ack 40 ------- 0 2.0 0.0 16 49
+ 1.033675 0 1 tcp 1040 ------- 0 0.0 2.0 33 50
- 1.033675 0 1 tcp 1040 ------- 0 0.0 2.0 33 50
+ 1.033675 0 1 tcp 1040 ------- 0 0.0 2.0 34 51
- 1.033813 0 1 tcp 1040 ------- 0 0.0 2.0 34 51
r 1.033813 0 1 tcp 1040 ------- 0 0.0 2.0 33 50
+ 1.033813 1 2 tcp 1040 ------- 0 0.0 2.0 33 50
r 1.033952 0 1 tcp 1040 ------- 0 0.0 2.0 34 51
+ 1.033952 1 2 tcp 1040 ------- 0 0.0 2.0 34 51
d 1.033952 1 2 tcp 1040 ------- 0 0.0 2.0 34 51
- 1.035669 1 2 tcp 1040 ------- 0 0.0 2.0 19 29
r 1.035669 1 2 tcp 1040 ------- 0 0.0 2.0 17 26
+ 1.035669 2 1 ack 40 ------- 0 2.0 0.0 17 52
- 1.035669 2 1 ack 40 ------- 0 2.0 0.0 17 52
r 1.035749 2 1 ack 40 ------- 0 2.0 0.0 17 52
+ 1.035749 1 0 ack 40 ------- 0 2.0 0.0 17 52
- 1.035749 1 0 ack 40 ------- 0 2.0 0.0 17 52
r 1.035755 1 0 ack 40 ------- 0 2.0 0.0 17 52
+ 1.035755 0 1 tcp 1040 ------- 0 0.0 2.0 35 53
- 1.035755 0 1 tcp 1040 ------- 0 0.0 2.0 35 53
+ 1.035755 0 1 tcp 1040 ------- 0 0.0 2.0 36 54
- 1.035893 0 1 tcp 1040 ------- 0 0.0 2.0 36 54
r 1.035893 0 1 tcp 1040 ------- 0 0.0 2.0 35 53
+ 1.035893 1 2 tcp 1040 ------- 0 0.0 2.0 35 53
r 1.036032 0 1 tcp 1040 ------- 0 0.0 2.0 36 54
+ 1.036032 1 2 tcp 1040 ------- 0 0.0 2.0 36 54
d 1.036032 1 2 tcp 1040 ------- 0 0.0 2.0 36 54
- 1.037749 1 2 tcp 1040 ------- 0 0.0 2.0 21 32
r 1.037749 1 2 tcp 1040 ------- 0 0.0 2.0 19 29
+ 1.037749 2 1 ack 40 ------- 0 2.0 0.0 17 55
- 1.037749 2 1 ack 40 ------- 0 2.0 0.0 17 55
r 1.037829 2 1 ack 40 ------- 0 2.0 0.0 17 55
+ 1.037829 1 0 ack 40 ------- 0 2.0 0.0 17 55
- 1.037829 1 0 ack 40 ------- 0 2.0 0.0 17 55
r 1.037835 1 0 ack 40 ------- 0 2.0 0.0 17 55
+ 1.037835 0 1 tcp 1040 ------- 0 0.0 2.0 37 56
- 1.037835 0 1 tcp 1040 ------- 0 0.0 2.0 37 56
r 1.037973 0 1 tcp 1040 ------- 0 0.0 2.0 37 56
+ 1.037973 1 2 tcp 1040 ------- 0 0.0 2.0 37 56
- 1.039829 1 2 tcp 1040 ------- 0 0.0 2.0 23 35
r 1.039829 1 2 tcp 1040 ------- 0 0.0 2.0 21 32
+ 1.039829 2 1 ack 40 ------- 0 2.0 0.0 17 57
- 1.039829 2 1 ack 40 ------- 0 2.0 0.0 17 57
r 1.039909 2 1 ack 40 ------- 0 2.0 0.0 17 57
+ 1.039909 1 0 ack 40 ------- 0 2.0 0.0 17 57
- 1.039909 1 0 ack 40 ------- 0 2.0 0.0 17 57
r 1.039915 1 0 ack 40 ------- 0 2.0 0.0 17 57
- 1.041909 1 2 tcp 1040 ------- 0 0.0 2.0 25 38
r 1.041909 1 2 tcp 1040 ------- 0 0.0 2.0 23 35
+ 1.041909 2 1 ack 40 ------- 0 2.0 0.0 17 58
- 1.041909 2 1 ack 40 ------- 0 2.0 0.0 17 58
r 1.041989 2 1 ack 40 ------- 0 2.0 0.0 17 58
+ 1.041989 1 0 ack 40 ------- 0 2.0 0.0 17 58
- 1.041989 1 0 ack 40 ------- 0 2.0 0.0 17 58
r 1.041995 1 0 ack 40 ------- 0 2.0 0.0 17 58
+ 1.041995 0 1 tcp 1040 ---A--- 0 0.0 2.0 18 59
- 1.041995 0 1 tcp 1040 ---A--- 0 0.0 2.0 18 59
r 1.042133 0 1 tcp 1040 ---A--- 0 0.0 2.0 18 59
+ 1.042133 1 2 tcp 1040 ---A--- 0 0.0 2.0 18 59
- 1.043989 1 2 tcp 1040 ------- 0 0.0 2.0 27 41
r 1.043989 1 2 tcp 1040 ------- 0 0.0 2.0 25 38
+ 1.043989 2 1 ack 40 ------- 0 2.0 0.0 17 60
- 1.043989 2 1 ack 40 ------- 0 2.0 0.0 17 60
r 1.044069 2 1 ack 40 ------- 0 2.0 0.0 17 60
+ 1.044069 1 0 ack 40 ------- 0 2.0 0.0 17 60
- 1.044069 1 0 ack 40 ------- 0 2.0 0.0 17 60
r 1.044075 1 0 ack 40 ------- 0 2.0 0.0 17 60
- 1.046069 1 2 tcp 1040 ------- 0 0.0 2.0 29 44
r 1.046069 1 2 tcp 1040 ------- 0 0.0 2.0 27 41
+ 1.046069 2 1 ack 40 ------- 0 2.0 0.0 17 61
- 1.046069 2 1 ack 40 ------- 0 2.0 0.0 17 61
r 1.046149 2 1 ack 40 ------- 0 2.0 0.0 17 61
+ 1.046149 1 0 ack 40 ------- 0 2.0 0.0 17 61
- 1.046149 1 0 ack 40 ------- 0 2.0 0.0 17 61
r 1.046155 1 0 ack 40 ------- 0 2.0 0.0 17 61
- 1.048149 1 2 tcp 1040 ------- 0 0.0 2.0 31 47
r 1.048149 1 2 tcp 1040 ------- 0 0.0 2.0 29 44
+ 1.048149 2 1 ack 40 ------- 0 2.0 0.0 17 62
- 1.048149 2 1 ack 40 ------- 0 2.0 0.0 17 62
r 1.048229 2 1 ack 40 ------- 0 2.0 0.0 17 62
+ 1.048229 1 0 ack 40 ------- 0 2.0 0.0 17 62
- 1.048229 1 0 ack 40 ------- 0 2.0 0.0 17 62
r 1.048235 1 0 ack 40 ------- 0 2.0 0.0 17 62
- 1.050229 1 2 tcp 1040 ------- 0 0.0 2.0 33 50
r 1.050229 1 2 tcp 1040 ------- 0 0.0 2.0 31 47
+ 1.050229 2 1 ack 40 ------- 0 2.0 0.0 17 63
- 1.050229 2 1 ack 40 ------- 0 2.0 0.0 17 63
r 1.050309 2 1 ack 40 ------- 0 2.0 0.0 17 63
+ 1.050309 1 0 ack 40 ------- 0 2.0 0.0 17 63
- 1.050309 1 0 ack 40 ------- 0 2.0 0.0 17 63
r 1.050315 1 0 ack 40 ------- 0 2.0 0.0 17 63
- 1.052309 1 2 tcp 1040 ------- 0 0.0 2.0 35 53
r 1.052309 1 2 tcp 1040 ------- 0 0.0 2.0 33 50
+ 1.052309 2 1 ack 40 ------- 0 2.0 0.0 17 64
- 1.052309 2 1 ack 40 ------- 0 2.0 0.0 17 64
r 1.052389 2 1 ack 40 ------- 0 2.0 0.0 17 64
+ 1.052389 1 0 ack 40 ------- 0 2.0 0.0 17 64
- 1.052389 1 0 ack 40 ------- 0 2.0 0.0 17 64
r 1.052395 1 0 ack 40 ------- 0 2.0 0.0 17 64
- 1.054389 1 2 tcp 1040 ------- 0 0.0 2.0 37 56
r 1.054389 1 2 tcp 1040 ------- 0 0.0 2.0 35 53
+ 1.054389 2 1 ack 40 ------- 0 2.0 0.0 17 65
- 1.054389 2 1 ack 40 ------- 0 2.0 0.0 17 65
r 1.054469 2 1 ack 40 ------- 0 2.0 0.0 17 65
+ 1.054469 1 0 ack 40 ------- 0 2.0 0.0 17 65
- 1.054469 1 0 ack 40 ------- 0 2.0 0.0 17 65
r 1.054475 1 0 ack 40 ------- 0 2.0 0.0 17 65
- 1.056469 1 2 tcp 1040 ---A--- 0 0.0 2.0 18 59
r 1.056469 1 2 tcp 1040 ------- 0 0.0 2.0 37 56
+ 1.056469 2 1 ack 40 ------- 0 2.0 0.0 17 66
- 1.056469 2 1 ack 40 ------- 0 2.0 0.0 17 66
r 1.056549 2 1 ack 40 ------- 0 2.0 0.0 17 66
+ 1.056549 1 0 ack 40 ------- 0 2.0 0.0 17 66
- 1.056549 1 0 ack 40 ------- 0 2.0 0.0 17 66
r 1.056555 1 0 ack 40 ------- 0 2.0 0.0 17 66
r 1.058549 1 2 tcp 1040 ---A--- 0 0.0 2.0 18 59
+ 1.058549 2 1 ack 40 ------- 0 2.0 0.0 19 67
- 1.058549 2 1 ack 40 ------- 0 2.0 0.0 19 67
r 1.058629 2 1 ack 40 ------- 0 2.0 0.0 19 67
+ 1.058629 1 0 ack 40 ------- 0 2.0 0.0 19 67
- 1.058629 1 0 ack 40 ------- 0 2.0 0.0 19 67
r 1.058635 1 0 ack 40 ------- 0 2.0 0.0 19 67
+ 1.058635 0 1 tcp 1040 ------- 0 0.0 2.0 20 68
- 1.058635 0 1 tcp 1040 ------- 0 0.0 2.0 20 68
+ 1.058635 0 1 tcp 1040 ------- 0 0.0 2.0 21 69
- 1.058773 0 1 tcp 1040 ------- 0 0.0 2.0 21 69
r 1.058773 0 1 tcp 1040 ------- 0 0.0 2.0 20 68
+ 1.058773 1 2 tcp 1040 ------- 0 0.0 2.0 20 68
- 1.058773 1 2 tcp 1040 ------- 0 0.0 2.0 20 68
r 1.058912 0 1 tcp 1040 ------- 0 0.0 2.0 21 69
+ 1.058912 1 2 tcp 1040 ------- 0 0.0 2.0 21 69
- 1.060853 1 2 tcp 1040 ------- 0 0.0 2.0 21 69
r 1.060853 1 2 tcp 1040 ------- 0 0.0 2.0 20 68
+ 1.060853 2 1 ack 40 ------- 0 2.0 0.0 21 70
- 1.060853 2 1 ack 40 ------- 0 2.0 0.0 21 70
r 1.060933 2 1 ack 40 ------- 0 2.0 0.0 21 70
+ 1.060933 1 0 ack 40 ------- 0 2.0 0.0 21 70
- 1.060933 1 0 ack 40 ------- 0 2.0 0.0 21 70
r 1.060939 1 0 ack 40 ------- 0 2.0 0.0 21 70
+ 1.060939 0 1 tcp 1040 ------- 0 0.0 2.0 22 71
- 1.060939 0 1 tcp 1040 ------- 0 0.0 2.0 22 71
+ 1.060939 0 1 tcp 1040 ------- 0 0.0 2.0 23 72
+ 1.060939 0 1 tcp 1040 ------- 0 0.0 2.0 24 73
- 1.061077 0 1 tcp 1040 ------- 0 0.0 2.0 23 72
r 1.061077 0 1 tcp 1040 ------- 0 0.0 2.0 22 71
+ 1.061077 1 2 tcp 1040 ------- 0 0.0 2.0 22 71
- 1.061216 0 1 tcp 1040 ------- 0 0.0 2.0 24 73
r 1.061216 0 1 tcp 1040 ------- 0 0.0 2.0 23 72
+ 1.061216 1 2 tcp 1040 ------- 0 0.0 2.0 23 72
r 1.061355 0 1 tcp 1040 ------- 0 0.0 2.0 24 73
+ 1.061355 1 2 tcp 1040 ------- 0 0.0 2.0 24 73
- 1.062933 1 2 tcp 1040 ------- 0 0.0 2.0 22 71
r 1.062933 1 2 tcp 1040 ------- 0 0.0 2.0 21 69
+ 1.062933 2 1 ack 40 ------- 0 2.0 0.0 21 74
- 1.062933 2 1 ack 40 ------- 0 2.0 0.0 21 74
r 1.063013 2 1 ack 40 ------- 0 2.0 0.0 21 74
+ 1.063013 1 0 ack 40 ------- 0 2.0 0.0 21 74
- 1.063013 1 0 ack 40 ------- 0 2.0 0.0 21 74
r 1.063019 1 0 ack 40 ------- 0 2.0 0.0 21 74
+ 1.063019 0 1 tcp 1040 ------- 0 0.0 2.0 25 75
- 1.063019 0 1 tcp 1040 ------- 0 0.0 2.0 25 75
r 1.063157 0 1 tcp 1040 ------- 0 0.0 2.0 25 75
+ 1.063157 1 2 tcp 1040 ------- 0 0.0 2.0 25 75
- 1.065013 1 2 tcp 1040 ------- 0 0.0 2.0 23 72
r 1.065013 1 2 tcp 1040 ------- 0 0.0 2.0 22 71
+ 1.065013 2 1 ack 40 ------- 0 2.0 0.0 23 76
- 1.065013 2 1 ack 40 ------- 0 2.0 0.0 23 76
r 1.065093 2 1 ack 40 ------- 0 2.0 0.0 23 76
+ 1.065093 1 0 ack 40 ------- 0 2.0 0.0 23 76
- 1.065093 1 0 ack 40 ------- 0 2.0 0.0 23 76
r 1.065099 1 0 ack 40 ------- 0 2.0 0.0 23 76
+ 1.065099 0 1 tcp 1040 ------- 0 0.0 2.0 26 77
- 1.065099 0 1 tcp 1040 ------- 0 0.0 2.0 26 77
+ 1.065099 0 1 tcp 1040 ------- 0 0.0 2.0 27 78
- 1.065237 0 1 tcp 1040 ------- 0 0.0 2.0 27 78
r 1.065237 0 1 tcp 1040 ------- 0 0.0 2.0 26 77
+ 1.065237 1 2 tcp 1040 ------- 0 0.0 2.0 26 77
r 1.065376 0 1 tcp 1040 ------- 0 0.0 2.0 27 78
+ 1.065376 1 2 tcp 1040 ------- 0 0.0 2.0 27 78
- 1.067093 1 2 tcp 1040 ------- 0 0.0 2.0 24 73
r 1.067093 1 2 tcp 1040 ------- 0 0.0 2.0 23 72
+ 1.067093 2 1 ack 40 ------- 0 2.0 0.0 23 79
- 1.067093 2 1 ack 40 ------- 0 2.0 0.0 23 79
r 1.067173 2 1 ack 40 ------- 0 2.0 0.0 23 79
+ 1.067173 1 0 ack 40 ------- 0 2.0 0.0 23 79
- 1.067173 1 0 ack 40 ------- 0 2.0 0.0 23 79
r 1.067179 1 0 ack 40 ------- 0 2.0 0.0 23 79
+ 1.067179 0 1 tcp 1040 ------- 0 0.0 2.0 28 80
- 1.067179 0 1 tcp 1040 ------- 0 0.0 2.0 28 80
r 1.067317 0 1 tcp 1040 ------- 0 0.0 2.0 28 80
+ 1.067317 1 2 tcp 1040 ------- 0 0.0 2.0 28 80
- 1.069173 1 2 tcp 1040 ------- 0 0.0 2.0 25 75
r 1.069173 1 2 tcp 1040 ------- 0 0.0 2.0 24 73
+ 1.069173 2 1 ack 40 ------- 0 2.0 0.0 25 81
- 1.069173 2 1 ack 40 ------- 0 2.0 0.0 25 81
r 1.069253 2 1 ack 40 ------- 0 2.0 0.0 25 81
+ 1.069253 1 0 ack 40 ------- 0 2.0 0.0 25 81
- 1.069253 1 0 ack 40 ------- 0 2.0 0.0 25 81
r 1.069259 1 0 ack 40 ------- 0 2.0 0.0 25 81
+ 1.069259 0 1 tcp 1040 ------- 0 0.0 2.0 29 82
- 1.069259 0 1 tcp 1040 ------- 0 0.0 2.0 29 82
+ 1.069259 0 1 tcp 1040 ------- 0 0.0 2.0 30 83
- 1.069397 0 1 tcp 1040 ------- 0 0.0 2.0 30 83
r 1.069397 0 1 tcp 1040 ------- 0 0.0 2.0 29 82
+ 1.069397 1 2 tcp 1040 ------- 0 0.0 2.0 29 82
r 1.069536 0 1 tcp 1040 ------- 0 0.0 2.0 30 83
+ 1.069536 1 2 tcp 1040 ------- 0 0.0 2.0 30 83
- 1.071253 1 2 tcp 1040 ------- 0 0.0 2.0 26 77
r 1.071253 1 2 tcp 1040 ------- 0 0.0 2.0 25 75
+ 1.071253 2 1 ack 40 ------- 0 2.0 0.0 25 84
- 1.071253 2 1 ack 40 ------- 0 2.0 0.0 25 84
r 1.071333 2 1 ack 40 ------- 0 2.0 0.0 25 84
+ 1.071333 1 0 ack 40 ------- 0 2.0 0.0 25 84
- 1.071333 1 0 ack 40 ------- 0 2.0 0.0 25 84
r 1.071339 1 0 ack 40 ------- 0 2.0 0.0 25 84
+ 1.071339 0 1 tcp 1040 ------- 0 0.0 2.0 31 85
- 1.071339 0 1 tcp 1040 ------- 0 0.0 2.0 31 85
r 1.071477 0 1 tcp 1040 ------- 0 0.0 2.0 31 85
+ 1.071477 1 2 tcp 1040 ------- 0 0.0 2.0 31 85
- 1.073333 1 2 tcp 1040 ------- 0 0.0 2.0 27 78
r 1.073333 1 2 tcp 1040 ------- 0 0.0 2.0 26 77
+ 1.073333 2 1 ack 40 ------- 0 2.0 0.0 27 86
- 1.073333 2 1 ack 40 ------- 0 2.0 0.0 27 86
r 1.073413 2 1 ack 40 ------- 0 2.0 0.0 27 86
+ 1.073413 1 0 ack 40 ------- 0 2.0 0.0 27 86
- 1.073413 1 0 ack 40 ------- 0 2.0 0.0 27 86
r 1.073419 1 0 ack 40 ------- 0 2.0 0.0 27 86
+ 1.073419 0 1 tcp 1040 ------- 0 0.0 2.0 32 87
- 1.073419 0 1 tcp 1040 ------- 0 0.0 2.0 32 87
+ 1.073419 0 1 tcp 1040 ------- 0 0.0 2.0 33 88
- 1.073557 0 1 tcp 1040 ------- 0 0.0 2.0 33 88
r 1.073557 0 1 tcp 1040 ------- 0 0.0 2.0 32 87
+ 1.073557 1 2 tcp 1040 ------- 0 0.0 2.0 32 87
r 1.073696 0 1 tcp 1040 ------- 0 0.0 2.0 33 88
+ 1.073696 1 2 tcp 1040 ------- 0 0.0 2.0 33 88
- 1.075413 1 2 tcp 1040 ------- 0 0.0 2.0 28 80
r 1.075413 1 2 tcp 1040 ------- 0 0.0 2.0 27 78
+ 1.075413 2 1 ack 40 ------- 0 2.0 0.0 27 89
- 1.075413 2 1 ack 40 ------- 0 2.0 0.0 27 89
r 1.075493 2 1 ack 40 ------- 0 2.0 0.0 27 89
+ 1.075493 1 0 ack 40 ------- 0 2.0 0.0 27 89
- 1.075493 1 0 ack 40 ------- 0 2.0 0.0 27 89
r 1.075499 1 0 ack 40 ------- 0 2.0 0.0 27 89
+ 1.075499 0 1 tcp 1040 ------- 0 0.0 2.0 34 90
- 1.075499 0 1 tcp 1040 ------- 0 0.0 2.0 34 90
r 1.075637 0 1 tcp 1040 ------- 0 0.0 2.0 34 90
+ 1.075637 1 2 tcp 1040 ------- 0 0.0 2.0 34 90
- 1.077493 1 2 tcp 1040 ------- 0 0.0 2.0 29 82
r 1.077493 1 2 tcp 1040 ------- 0 0.0 2.0 28 80
+ 1.077493 2 1 ack 40 ------- 0 2.0 0.0 29 91
- 1.077493 2 1 ack 40 ------- 0 2.0 0.0 29 91
r 1.077573 2 1 ack 40 ------- 0 2.0 0.0 29 91
+ 1.077573 1 0 ack 40 ------- 0 2.0 0.0 29 91
- 1.077573 1 0 ack 40 ------- 0 2.0 0.0 29 91
r 1.077579 1 0 ack 40 ------- 0 2.0 0.0 29 91
+ 1.077579 0 1 tcp 1040 ------- 0 0.0 2.0 35 92
- 1.077579 0 1 tcp 1040 ------- 0 0.0 2.0 35 92
+ 1.077579 0 1 tcp 1040 ------- 0 0.0 2.0 36 93
- 1.077717 0 1 tcp 1040 ------- 0 0.0 2.0 36 93
r 1.077717 0 1 tcp 1040 ------- 0 0.0 2.0 35 92
+ 1.077717 1 2 tcp 1040 ------- 0 0.0 2.0 35 92
r 1.077856 0 1 tcp 1040 ------- 0 0.0 2.0 36 93
+ 1.077856 1 2 tcp 1040 ------- 0 0.0 2.0 36 93
- 1.079573 1 2 tcp 1040 ------- 0 0.0 2.0 30 83
r 1.079573 1 2 tcp 1040 ------- 0 0.0 2.0 29 82
+ 1.079573 2 1 ack 40 ------- 0 2.0 0.0 29 94
- 1.079573 2 1 ack 40 ------- 0 2.0 0.0 29 94
r 1.079653 2 1 ack 40 ------- 0 2.0 0.0 29 94
+ 1.079653 1 0 ack 40 ------- 0 2.0 0.0 29 94
- 1.079653 1 0 ack 40 ------- 0 2.0 0.0 29 94
r 1.079659 1 0 ack 40 ------- 0 2.0 0.0 29 94
+ 1.079659 0 1 tcp 1040 ------- 0 0.0 2.0 37 95
- 1.079659 0 1 tcp 1040 ------- 0 0.0 2.0 37 95
r 1.079797 0 1 tcp 1040 ------- 0 0.0 2.0 37 95
+ 1.079797 1 2 tcp 1040 ------- 0 0.0 2.0 37 95
- 1.081653 1 2 tcp 1040 ------- 0 0.0 2.0 31 85
r 1.081653 1 2 tcp 1040 ------- 0 0.0 2.0 30 83
+ 1.081653 2 1 ack 40 ------- 0 2.0 0.0 31 96
- 1.081653 2 1 ack 40 ------- 0 2.0 0.0 31 96
r 1.081733 2 1 ack 40 ------- 0 2.0 0.0 31 96
+ 1.081733 1 0 ack 40 ------- 0 2.0 0.0 31 96
- 1.081733 1 0 ack 40 ------- 0 2.0 0.0 31 96
r 1.081739 1 0 ack 40 ------- 0 2.0 0.0 31 96
+ 1.081739 0 1 tcp 1040 ------- 0 0.0 2.0 38 97
- 1.081739 0 1 tcp 1040 ------- 0 0.0 2.0 38 97
+ 1.081739 0 1 tcp 1040 ------- 0 0.0 2.0 39 98
- 1.081877 0 1 tcp 1040 ------- 0 0.0 2.0 39 98
r 1.081877 0 1 tcp 1040 ------- 0 0.0 2.0 38 97
+ 1.081877 1 2 tcp 1040 ------- 0 0.0 2.0 38 97
r 1.082016 0 1 tcp 1040 ------- 0 0.0 2.0 39 98
+ 1.082016 1 2 tcp 1040 ------- 0 0.0 2.0 39 98
- 1.083733 1 2 tcp 1040 ------- 0 0.0 2.0 32 87
r 1.083733 1 2 tcp 1040 ------- 0 0.0 2.0 31 85
+ 1.083733 2 1 ack 40 ------- 0 2.0 0.0 31 99
- 1.083733 2 1 ack 40 ------- 0 2.0 0.0 31 99
r 1.083813 2 1 ack 40 ------- 0 2.0 0.0 31 99
+ 1.083813 1 0 ack 40 ------- 0 2.0 0.0 31 99
- 1.083813 1 0 ack 40 ------- 0 2.0 0.0 31 99
r 1.083819 1 0 ack 40 ------- 0 2.0 0.0 31 99
+ 1.083819 0 1 tcp 1040 ------- 0 0.0 2.0 40 100
- 1.083819 0 1 tcp 1040 ------- 0 0.0 2.0 40 100
r 1.083957 0 1 tcp 1040 ------- 0 0.0 2.0 40 100
+ 1.083957 1 2 tcp 1040 ------- 0 0.0 2.0 40 100
- 1.085813 1 2 tcp 1040 ------- 0 0.0 2.0 33 88
r 1.085813 1 2 tcp 1040 ------- 0 0.0 2.0 32 87
+ 1.085813 2 1 ack 40 ------- 0 2.0 0.0 33 101
- 1.085813 2 1 ack 40 ------- 0 2.0 0.0 33 101
r 1.085893 2 1 ack 40 ------- 0 2.0 0.0 33 101
+ 1.085893 1 0 ack 40 ------- 0 2.0 0.0 33 101
- 1.085893 1 0 ack 40 ------- 0 2.0 0.0 33 101
r 1.085899 1 0 ack 40 ------- 0 2.0 0.0 33 101
+ 1.085899 0 1 tcp 1040 ------- 0 0.0 2.0 41 102
- 1.085899 0 1 tcp 1040 ------- 0 0.0 2.0 41 102
+ 1.085899 0 1 tcp 1040 ------- 0 0.0 2.0 42 103
- 1.086037 0 1 tcp 1040 ------- 0 0.0 2.0 42 103
r 1.086037 0 1 tcp 1040 ------- 0 0.0 2.0 41 102
+ 1.086037 1 2 tcp 1040 ------- 0 0.0 2.0 41 102
r 1.086176 0 1 tcp 1040 ------- 0 0.0 2.0 42 103
+ 1.086176 1 2 tcp 1040 ------- 0 0.0 2.0 42 103
d 1.086176 1 2 tcp 1040 ------- 0 0.0 2.0 42 103
- 1.087893 1 2 tcp 1040 ------- 0 0.0 2.0 34 90
r 1.087893 1 2 tcp 1040 ------- 0 0.0 2.0 33 88
+ 1.087893 2 1 ack 40 ------- 0 2.0 0.0 33 104
- 1.087893 2 1 ack 40 ------- 0 2.0 0.0 33 104
r 1.087973 2 1 ack 40 ------- 0 2.0 0.0 33 104
+ 1.087973 1 0 ack 40 ------- 0 2.0 0.0 33 104
- 1.087973 1 0 ack 40 ------- 0 2.0 0.0 33 104
r 1.087979 1 0 ack 40 ------- 0 2.0 0.0 33 104
+ 1.087979 0 1 tcp 1040 ------- 0 0.0 2.0 43 105
- 1.087979 0 1 tcp 1040 ------- 0 0.0 2.0 43 105
r 1.088117 0 1 tcp 1040 ------- 0 0.0 2.0 43 105
+ 1.088117 1 2 tcp 1040 ------- 0 0.0 2.0 43 105
- 1.089973 1 2 tcp 1040 ------- 0 0.0 2.0 35 92
r 1.089973 1 2 tcp 1040 ------- 0 0.0 2.0 34 90
+ 1.089973 2 1 ack 40 ------- 0 2.0 0.0 35 106
- 1.089973 2 1 ack 40 ------- 0 2.0 0.0 35 106
r 1.090053 2 1 ack 40 ------- 0 2.0 0.0 35 106
+ 1.090053 1 0 ack 40 ------- 0 2.0 0.0 35 106
- 1.090053 1 0 ack 40 ------- 0 2.0 0.0 35 106
r 1.090059 1 0 ack 40 ------- 0 2.0 0.0 35 106
+ 1.090059 0 1 tcp 1040 ------- 0 0.0 2.0 44 107
- 1.090059 0 1 tcp 1040 ------- 0 0.0 2.0 44 107
r 1.090197 0 1 tcp 1040 ------- 0 0.0 2.0 44 107
+ 1.090197 1 2 tcp 1040 ------- 0 0.0 2.0 44 107
- 1.092053 1 2 tcp 1040 ------- 0 0.0 2.0 36 93
r 1.092053 1 2 tcp 1040 ------- 0 0.0 2.0 35 92
+ 1.092053 2 1 ack 40 ------- 0 2.0 0.0 35 108
- 1.092053 2 1 ack 40 ------- 0 2.0 0.0 35 108
r 1.092133 2 1 ack 40 ------- 0 2.0 0.0 35 108
+ 1.092133 1 0 ack 40 ------- 0 2.0 0.0 35 108
- 1.092133 1 0 ack 40 ------- 0 2.0 0.0 35 108
r 1.092139 1 0 ack 40 ------- 0 2.0 0.0 35 108
+ 1.092139 0 1 tcp 1040 ------- 0 0.0 2.0 45 109
- 1.092139 0 1 tcp 1040 ------- 0 0.0 2.0 45 109
r 1.092277 0 1 tcp 1040 ------- 0 0.0 2.0 45 109
+ 1.092277 1 2 tcp 1040 ------- 0 0.0 2.0 45 109
- 1.094133 1 2 tcp 1040 ------- 0 0.0 2.0 37 95
r 1.094133 1 2 tcp 1040 ------- 0 0.0 2.0 36 93
+ 1.094133 2 1 ack 40 ------- 0 2.0 0.0 37 110
- 1.094133 2 1 ack 40 ------- 0 2.0 0.0 37 110
r 1.094213 2 1 ack 40 ------- 0 2.0 0.0 37 110
+ 1.094213 1 0 ack 40 ------- 0 2.0 0.0 37 110
- 1.094213 1 0 ack 40 ------- 0 2.0 0.0 37 110